 
             +---------------------------------------------------+
             |                                                   |
             |                   WANNIER90                       |
             |                                                   |
             +---------------------------------------------------+
             |                                                   |
             |        Welcome to the Maximally-Localized         |
             |        Generalized Wannier Functions code         |
             |            http://www.wannier.org                 |
             |                                                   |
             |                                                   |
             |  Wannier90 Developer Group:                       |
             |    Giovanni Pizzi    (EPFL)                       |
             |    Valerio Vitale    (Cambridge)                  |
             |    David Vanderbilt  (Rutgers University)         |
             |    Nicola Marzari    (EPFL)                       |
             |    Ivo Souza         (Universidad del Pais Vasco) |
             |    Arash A. Mostofi  (Imperial College London)    |
             |    Jonathan R. Yates (University of Oxford)       |
             |                                                   |
             |  For the full list of Wannier90 3.x authors,      |
             |  please check the code documentation and the      |
             |  README on the GitHub page of the code            |
             |                                                   |
             |                                                   |
             |  Please cite                                      |
             |                                                   |
             |  [ref] "Wannier90 as a community code:            |
             |        new features and applications",            |
             |        G. Pizzi et al., J. Phys. Cond. Matt. 32,  |
             |        165902 (2020).                             |
             |        http://doi.org/10.1088/1361-648X/ab51ff    |
             |                                                   |
             |  in any publications arising from the use of      |
             |  this code. For the method please cite            |
             |                                                   |
             |  [ref] "Maximally Localized Generalised Wannier   |
             |         Functions for Composite Energy Bands"     |
             |         N. Marzari and D. Vanderbilt              |
             |         Phys. Rev. B 56 12847 (1997)              |
             |                                                   |
             |  [ref] "Maximally Localized Wannier Functions     |
             |         for Entangled Energy Bands"               |
             |         I. Souza, N. Marzari and D. Vanderbilt    |
             |         Phys. Rev. B 65 035109 (2001)             |
             |                                                   |
             |                                                   |
             | Copyright (c) 1996-2020                           |
             |        The Wannier90 Developer Group and          |
             |        individual contributors                    |
             |                                                   |
             |      Release: 3.1.0        5th March    2020      |
             |                                                   |
             | This program is free software; you can            |
             | redistribute it and/or modify it under the terms  |
             | of the GNU General Public License as published by |
             | the Free Software Foundation; either version 2 of |
             | the License, or (at your option) any later version|
             |                                                   |
             | This program is distributed in the hope that it   |
             | will be useful, but WITHOUT ANY WARRANTY; without |
             | even the implied warranty of MERCHANTABILITY or   |
             | FITNESS FOR A PARTICULAR PURPOSE. See the GNU     |
             | General Public License for more details.          |
             |                                                   |
             | You should have received a copy of the GNU General|
             | Public License along with this program; if not,   |
             | write to the Free Software Foundation, Inc.,      |
             | 675 Mass Ave, Cambridge, MA 02139, USA.           |
             |                                                   |
             +---------------------------------------------------+
             |    Execution started on 17Jul2023 at 16:05:34     |
             +---------------------------------------------------+
 
 ******************************************************************************
 * -> Using CODATA 2006 constant values                                       *
 *    (http://physics.nist.gov/cuu/Constants/index.html)                      *
 * -> Using Bohr value from CODATA                                            *
 ******************************************************************************
 

 Running in parallel on  80 CPUs

 
                                    ------
                                    SYSTEM
                                    ------
 
                              Lattice Vectors (Ang)
                    a_1    13.784171   0.000000   0.000000
                    a_2    -6.892085  11.937442   0.000000
                    a_3     0.000000   0.000000  23.631430
 
                   Unit Cell Volume:    3888.49848  (Ang^3)
 
                        Reciprocal-Space Vectors (Ang^-1)
                    b_1     0.455826   0.263171   0.000000
                    b_2     0.000000   0.526343   0.000000
                    b_3     0.000000   0.000000   0.265883
  
 *----------------------------------------------------------------------------*
 |   Site       Fractional Coordinate          Cartesian Coordinate (Ang)     |
 +----------------------------------------------------------------------------+
 | Cr   1   0.33333   0.66667   0.16685   |   -0.00000   7.95829   3.94299    |
 | Nb   1   0.00000   0.00000   0.07170   |    0.00000   0.00000   1.69430    |
 | Nb   2   0.25189   0.00024   0.07201   |    3.47040   0.00287   1.70173    |
 | Nb   3   0.50228   0.00457   0.07084   |    6.89209   0.05454   1.67414    |
 | Nb   4   0.74835   0.00024   0.07201   |   10.31377   0.00287   1.70173    |
 | Nb   5   0.74850   0.25150   0.06828   |    8.58404   3.00230   1.61367    |
 | Nb   6   0.74850   0.49699   0.06828   |    6.89209   5.93284   1.61367    |
 | Nb   7   0.74835   0.74811   0.07201   |    5.15937   8.93055   1.70173    |
 | Nb   8   0.50032   0.75016   0.07859   |    1.72635   8.95500   1.85709    |
 | Nb   9   0.24984   0.75016   0.07859   |   -1.72635   8.95500   1.85709    |
 | Nb  10  -0.00024   0.74811   0.07201   |   -5.15937   8.93055   1.70173    |
 | Nb  11   0.50301   0.25150   0.06828   |    5.20014   3.00230   1.61367    |
 | Nb  12   0.50228   0.49772   0.07084   |    3.49327   5.94145   1.67414    |
 | Nb  13   0.24984   0.49968   0.07859   |   -0.00000   5.96488   1.85709    |
 | Nb  14   0.25189   0.25165   0.07201   |    1.73769   3.00402   1.70173    |
 | Nb  15  -0.00024   0.25165   0.07201   |   -1.73769   3.00402   1.70173    |
 | Nb  16  -0.00457   0.49772   0.07084   |   -3.49327   5.94145   1.67414    |
 | Se   1   0.16721   0.08361   0.00063   |    1.72866   0.99804   0.01486    |
 | Se   2   0.16690   0.08345   0.14290   |    1.72538   0.99615   3.37693    |
 | Se   3   0.41544   0.08143  -0.00156   |    5.16530   0.97207  -0.03681    |
 | Se   4   0.41911   0.08928   0.14188   |    5.16174   1.06572   3.35289    |
 | Se   5   0.66599   0.08143  -0.00156   |    8.61887   0.97207  -0.03681    |
 | Se   6   0.67017   0.08928   0.14188   |    8.62243   1.06572   3.35289    |
 | Se   7   0.91639   0.08361   0.00063   |   12.05551   0.99804   0.01486    |
 | Se   8   0.91655   0.08345   0.14290   |   12.05879   0.99615   3.37693    |
 | Se   9   0.91857   0.33401  -0.00156   |   10.35968   3.98724  -0.03681    |
 | Se  10   0.91072   0.32983   0.14188   |   10.28036   3.93734   3.35289    |
 | Se  11   0.91857   0.58456  -0.00156   |    8.63289   6.97813  -0.03681    |
 | Se  12   0.91072   0.58089   0.14188   |    8.55002   6.93438   3.35289    |
 | Se  13   0.91639   0.83279   0.00063   |    6.89209   9.94136   0.01486    |
 | Se  14   0.91655   0.83310   0.14290   |    6.89209   9.94514   3.37693    |
 | Se  15   0.66220   0.83110   0.00298   |    3.39989   9.92122   0.07043    |
 | Se  16   0.67172   0.83586   0.14547   |    3.49824   9.97800   3.43758    |
 | Se  17   0.41489   0.82979   0.00560   |    0.00000   9.90552   0.13226    |
 | Se  18   0.42825   0.85651   0.14992   |    0.00000  10.22450   3.54287    |
 | Se  19   0.16890   0.83110   0.00298   |   -3.39989   9.92122   0.07043    |
 | Se  20   0.16414   0.83586   0.14547   |   -3.49824   9.97800   3.43758    |
 | Se  21   0.66667   0.33333  -0.00432   |    6.89209   3.97915  -0.10210    |
 | Se  22   0.66667   0.33333   0.14105   |    6.89209   3.97915   3.33317    |
 | Se  23   0.66599   0.58456  -0.00156   |    5.15128   6.97813  -0.03681    |
 | Se  24   0.67017   0.58089   0.14188   |    5.23415   6.93438   3.35289    |
 | Se  25   0.41489   0.58511   0.00560   |    1.68635   6.98468   0.13226    |
 | Se  26   0.42825   0.57175   0.14992   |    1.96259   6.82519   3.54287    |
 | Se  27   0.41544   0.33401  -0.00156   |    3.42449   3.98724  -0.03681    |
 | Se  28   0.41911   0.32983   0.14188   |    3.50381   3.93734   3.35289    |
 | Se  29   0.16890   0.33780   0.00298   |    0.00000   4.03244   0.07043    |
 | Se  30   0.16414   0.32828   0.14547   |    0.00000   3.91888   3.43758    |
 | Se  31   0.17021   0.58511   0.00560   |   -1.68635   6.98468   0.13226    |
 | Se  32   0.14349   0.57175   0.14992   |   -1.96259   6.82519   3.54287    |
 *----------------------------------------------------------------------------*
                                -----------
                                PROJECTIONS
                                -----------
  
 +----------------------------------------------------------------------------+
 |     Frac. Coord.   l mr  r        z-axis               x-axis          Z/a |
 +----------------------------------------------------------------------------+
 |  0.33  0.67  0.17  2  1  1  0.000  0.000  1.000  1.000  0.000  0.000   1.0 |
 |  0.33  0.67  0.17  2  2  1  0.000  0.000  1.000  1.000  0.000  0.000   1.0 |
 |  0.33  0.67  0.17  2  3  1  0.000  0.000  1.000  1.000  0.000  0.000   1.0 |
 |  0.33  0.67  0.17  2  4  1  0.000  0.000  1.000  1.000  0.000  0.000   1.0 |
 |  0.33  0.67  0.17  2  5  1  0.000  0.000  1.000  1.000  0.000  0.000   1.0 |
 |  0.00  0.00  0.07  2  1  1  0.000  0.000  1.000  1.000  0.000  0.000   1.0 |
 |  0.00  0.00  0.07  2  2  1  0.000  0.000  1.000  1.000  0.000  0.000   1.0 |
 |  0.00  0.00  0.07  2  3  1  0.000  0.000  1.000  1.000  0.000  0.000   1.0 |
 |  0.00  0.00  0.07  2  4  1  0.000  0.000  1.000  1.000  0.000  0.000   1.0 |
 |  0.00  0.00  0.07  2  5  1  0.000  0.000  1.000  1.000  0.000  0.000   1.0 |
 |  0.25  0.00  0.07  2  1  1  0.000  0.000  1.000  1.000  0.000  0.000   1.0 |
 |  0.25  0.00  0.07  2  2  1  0.000  0.000  1.000  1.000  0.000  0.000   1.0 |
 |  0.25  0.00  0.07  2  3  1  0.000  0.000  1.000  1.000  0.000  0.000   1.0 |
 |  0.25  0.00  0.07  2  4  1  0.000  0.000  1.000  1.000  0.000  0.000   1.0 |
 |  0.25  0.00  0.07  2  5  1  0.000  0.000  1.000  1.000  0.000  0.000   1.0 |
 |  0.50  0.00  0.07  2  1  1  0.000  0.000  1.000  1.000  0.000  0.000   1.0 |
 |  0.50  0.00  0.07  2  2  1  0.000  0.000  1.000  1.000  0.000  0.000   1.0 |
 |  0.50  0.00  0.07  2  3  1  0.000  0.000  1.000  1.000  0.000  0.000   1.0 |
 |  0.50  0.00  0.07  2  4  1  0.000  0.000  1.000  1.000  0.000  0.000   1.0 |
 |  0.50  0.00  0.07  2  5  1  0.000  0.000  1.000  1.000  0.000  0.000   1.0 |
 |  0.75  0.00  0.07  2  1  1  0.000  0.000  1.000  1.000  0.000  0.000   1.0 |
 |  0.75  0.00  0.07  2  2  1  0.000  0.000  1.000  1.000  0.000  0.000   1.0 |
 |  0.75  0.00  0.07  2  3  1  0.000  0.000  1.000  1.000  0.000  0.000   1.0 |
 |  0.75  0.00  0.07  2  4  1  0.000  0.000  1.000  1.000  0.000  0.000   1.0 |
 |  0.75  0.00  0.07  2  5  1  0.000  0.000  1.000  1.000  0.000  0.000   1.0 |
 |  0.75  0.25  0.07  2  1  1  0.000  0.000  1.000  1.000  0.000  0.000   1.0 |
 |  0.75  0.25  0.07  2  2  1  0.000  0.000  1.000  1.000  0.000  0.000   1.0 |
 |  0.75  0.25  0.07  2  3  1  0.000  0.000  1.000  1.000  0.000  0.000   1.0 |
 |  0.75  0.25  0.07  2  4  1  0.000  0.000  1.000  1.000  0.000  0.000   1.0 |
 |  0.75  0.25  0.07  2  5  1  0.000  0.000  1.000  1.000  0.000  0.000   1.0 |
 |  0.75  0.50  0.07  2  1  1  0.000  0.000  1.000  1.000  0.000  0.000   1.0 |
 |  0.75  0.50  0.07  2  2  1  0.000  0.000  1.000  1.000  0.000  0.000   1.0 |
 |  0.75  0.50  0.07  2  3  1  0.000  0.000  1.000  1.000  0.000  0.000   1.0 |
 |  0.75  0.50  0.07  2  4  1  0.000  0.000  1.000  1.000  0.000  0.000   1.0 |
 |  0.75  0.50  0.07  2  5  1  0.000  0.000  1.000  1.000  0.000  0.000   1.0 |
 |  0.75  0.75  0.07  2  1  1  0.000  0.000  1.000  1.000  0.000  0.000   1.0 |
 |  0.75  0.75  0.07  2  2  1  0.000  0.000  1.000  1.000  0.000  0.000   1.0 |
 |  0.75  0.75  0.07  2  3  1  0.000  0.000  1.000  1.000  0.000  0.000   1.0 |
 |  0.75  0.75  0.07  2  4  1  0.000  0.000  1.000  1.000  0.000  0.000   1.0 |
 |  0.75  0.75  0.07  2  5  1  0.000  0.000  1.000  1.000  0.000  0.000   1.0 |
 |  0.50  0.75  0.08  2  1  1  0.000  0.000  1.000  1.000  0.000  0.000   1.0 |
 |  0.50  0.75  0.08  2  2  1  0.000  0.000  1.000  1.000  0.000  0.000   1.0 |
 |  0.50  0.75  0.08  2  3  1  0.000  0.000  1.000  1.000  0.000  0.000   1.0 |
 |  0.50  0.75  0.08  2  4  1  0.000  0.000  1.000  1.000  0.000  0.000   1.0 |
 |  0.50  0.75  0.08  2  5  1  0.000  0.000  1.000  1.000  0.000  0.000   1.0 |
 |  0.25  0.75  0.08  2  1  1  0.000  0.000  1.000  1.000  0.000  0.000   1.0 |
 |  0.25  0.75  0.08  2  2  1  0.000  0.000  1.000  1.000  0.000  0.000   1.0 |
 |  0.25  0.75  0.08  2  3  1  0.000  0.000  1.000  1.000  0.000  0.000   1.0 |
 |  0.25  0.75  0.08  2  4  1  0.000  0.000  1.000  1.000  0.000  0.000   1.0 |
 |  0.25  0.75  0.08  2  5  1  0.000  0.000  1.000  1.000  0.000  0.000   1.0 |
 | -0.00  0.75  0.07  2  1  1  0.000  0.000  1.000  1.000  0.000  0.000   1.0 |
 | -0.00  0.75  0.07  2  2  1  0.000  0.000  1.000  1.000  0.000  0.000   1.0 |
 | -0.00  0.75  0.07  2  3  1  0.000  0.000  1.000  1.000  0.000  0.000   1.0 |
 | -0.00  0.75  0.07  2  4  1  0.000  0.000  1.000  1.000  0.000  0.000   1.0 |
 | -0.00  0.75  0.07  2  5  1  0.000  0.000  1.000  1.000  0.000  0.000   1.0 |
 |  0.50  0.25  0.07  2  1  1  0.000  0.000  1.000  1.000  0.000  0.000   1.0 |
 |  0.50  0.25  0.07  2  2  1  0.000  0.000  1.000  1.000  0.000  0.000   1.0 |
 |  0.50  0.25  0.07  2  3  1  0.000  0.000  1.000  1.000  0.000  0.000   1.0 |
 |  0.50  0.25  0.07  2  4  1  0.000  0.000  1.000  1.000  0.000  0.000   1.0 |
 |  0.50  0.25  0.07  2  5  1  0.000  0.000  1.000  1.000  0.000  0.000   1.0 |
 |  0.50  0.50  0.07  2  1  1  0.000  0.000  1.000  1.000  0.000  0.000   1.0 |
 |  0.50  0.50  0.07  2  2  1  0.000  0.000  1.000  1.000  0.000  0.000   1.0 |
 |  0.50  0.50  0.07  2  3  1  0.000  0.000  1.000  1.000  0.000  0.000   1.0 |
 |  0.50  0.50  0.07  2  4  1  0.000  0.000  1.000  1.000  0.000  0.000   1.0 |
 |  0.50  0.50  0.07  2  5  1  0.000  0.000  1.000  1.000  0.000  0.000   1.0 |
 |  0.25  0.50  0.08  2  1  1  0.000  0.000  1.000  1.000  0.000  0.000   1.0 |
 |  0.25  0.50  0.08  2  2  1  0.000  0.000  1.000  1.000  0.000  0.000   1.0 |
 |  0.25  0.50  0.08  2  3  1  0.000  0.000  1.000  1.000  0.000  0.000   1.0 |
 |  0.25  0.50  0.08  2  4  1  0.000  0.000  1.000  1.000  0.000  0.000   1.0 |
 |  0.25  0.50  0.08  2  5  1  0.000  0.000  1.000  1.000  0.000  0.000   1.0 |
 |  0.25  0.25  0.07  2  1  1  0.000  0.000  1.000  1.000  0.000  0.000   1.0 |
 |  0.25  0.25  0.07  2  2  1  0.000  0.000  1.000  1.000  0.000  0.000   1.0 |
 |  0.25  0.25  0.07  2  3  1  0.000  0.000  1.000  1.000  0.000  0.000   1.0 |
 |  0.25  0.25  0.07  2  4  1  0.000  0.000  1.000  1.000  0.000  0.000   1.0 |
 |  0.25  0.25  0.07  2  5  1  0.000  0.000  1.000  1.000  0.000  0.000   1.0 |
 | -0.00  0.25  0.07  2  1  1  0.000  0.000  1.000  1.000  0.000  0.000   1.0 |
 | -0.00  0.25  0.07  2  2  1  0.000  0.000  1.000  1.000  0.000  0.000   1.0 |
 | -0.00  0.25  0.07  2  3  1  0.000  0.000  1.000  1.000  0.000  0.000   1.0 |
 | -0.00  0.25  0.07  2  4  1  0.000  0.000  1.000  1.000  0.000  0.000   1.0 |
 | -0.00  0.25  0.07  2  5  1  0.000  0.000  1.000  1.000  0.000  0.000   1.0 |
 | -0.00  0.50  0.07  2  1  1  0.000  0.000  1.000  1.000  0.000  0.000   1.0 |
 | -0.00  0.50  0.07  2  2  1  0.000  0.000  1.000  1.000  0.000  0.000   1.0 |
 | -0.00  0.50  0.07  2  3  1  0.000  0.000  1.000  1.000  0.000  0.000   1.0 |
 | -0.00  0.50  0.07  2  4  1  0.000  0.000  1.000  1.000  0.000  0.000   1.0 |
 | -0.00  0.50  0.07  2  5  1  0.000  0.000  1.000  1.000  0.000  0.000   1.0 |
 |  0.17  0.08  0.00  1  1  1  0.000  0.000  1.000  1.000  0.000  0.000   1.0 |
 |  0.17  0.08  0.00  1  2  1  0.000  0.000  1.000  1.000  0.000  0.000   1.0 |
 |  0.17  0.08  0.00  1  3  1  0.000  0.000  1.000  1.000  0.000  0.000   1.0 |
 |  0.17  0.08  0.14  1  1  1  0.000  0.000  1.000  1.000  0.000  0.000   1.0 |
 |  0.17  0.08  0.14  1  2  1  0.000  0.000  1.000  1.000  0.000  0.000   1.0 |
 |  0.17  0.08  0.14  1  3  1  0.000  0.000  1.000  1.000  0.000  0.000   1.0 |
 |  0.42  0.08 -0.00  1  1  1  0.000  0.000  1.000  1.000  0.000  0.000   1.0 |
 |  0.42  0.08 -0.00  1  2  1  0.000  0.000  1.000  1.000  0.000  0.000   1.0 |
 |  0.42  0.08 -0.00  1  3  1  0.000  0.000  1.000  1.000  0.000  0.000   1.0 |
 |  0.42  0.09  0.14  1  1  1  0.000  0.000  1.000  1.000  0.000  0.000   1.0 |
 |  0.42  0.09  0.14  1  2  1  0.000  0.000  1.000  1.000  0.000  0.000   1.0 |
 |  0.42  0.09  0.14  1  3  1  0.000  0.000  1.000  1.000  0.000  0.000   1.0 |
 |  0.67  0.08 -0.00  1  1  1  0.000  0.000  1.000  1.000  0.000  0.000   1.0 |
 |  0.67  0.08 -0.00  1  2  1  0.000  0.000  1.000  1.000  0.000  0.000   1.0 |
 |  0.67  0.08 -0.00  1  3  1  0.000  0.000  1.000  1.000  0.000  0.000   1.0 |
 |  0.67  0.09  0.14  1  1  1  0.000  0.000  1.000  1.000  0.000  0.000   1.0 |
 |  0.67  0.09  0.14  1  2  1  0.000  0.000  1.000  1.000  0.000  0.000   1.0 |
 |  0.67  0.09  0.14  1  3  1  0.000  0.000  1.000  1.000  0.000  0.000   1.0 |
 |  0.92  0.08  0.00  1  1  1  0.000  0.000  1.000  1.000  0.000  0.000   1.0 |
 |  0.92  0.08  0.00  1  2  1  0.000  0.000  1.000  1.000  0.000  0.000   1.0 |
 |  0.92  0.08  0.00  1  3  1  0.000  0.000  1.000  1.000  0.000  0.000   1.0 |
 |  0.92  0.08  0.14  1  1  1  0.000  0.000  1.000  1.000  0.000  0.000   1.0 |
 |  0.92  0.08  0.14  1  2  1  0.000  0.000  1.000  1.000  0.000  0.000   1.0 |
 |  0.92  0.08  0.14  1  3  1  0.000  0.000  1.000  1.000  0.000  0.000   1.0 |
 |  0.92  0.33 -0.00  1  1  1  0.000  0.000  1.000  1.000  0.000  0.000   1.0 |
 |  0.92  0.33 -0.00  1  2  1  0.000  0.000  1.000  1.000  0.000  0.000   1.0 |
 |  0.92  0.33 -0.00  1  3  1  0.000  0.000  1.000  1.000  0.000  0.000   1.0 |
 |  0.91  0.33  0.14  1  1  1  0.000  0.000  1.000  1.000  0.000  0.000   1.0 |
 |  0.91  0.33  0.14  1  2  1  0.000  0.000  1.000  1.000  0.000  0.000   1.0 |
 |  0.91  0.33  0.14  1  3  1  0.000  0.000  1.000  1.000  0.000  0.000   1.0 |
 |  0.92  0.58 -0.00  1  1  1  0.000  0.000  1.000  1.000  0.000  0.000   1.0 |
 |  0.92  0.58 -0.00  1  2  1  0.000  0.000  1.000  1.000  0.000  0.000   1.0 |
 |  0.92  0.58 -0.00  1  3  1  0.000  0.000  1.000  1.000  0.000  0.000   1.0 |
 |  0.91  0.58  0.14  1  1  1  0.000  0.000  1.000  1.000  0.000  0.000   1.0 |
 |  0.91  0.58  0.14  1  2  1  0.000  0.000  1.000  1.000  0.000  0.000   1.0 |
 |  0.91  0.58  0.14  1  3  1  0.000  0.000  1.000  1.000  0.000  0.000   1.0 |
 |  0.92  0.83  0.00  1  1  1  0.000  0.000  1.000  1.000  0.000  0.000   1.0 |
 |  0.92  0.83  0.00  1  2  1  0.000  0.000  1.000  1.000  0.000  0.000   1.0 |
 |  0.92  0.83  0.00  1  3  1  0.000  0.000  1.000  1.000  0.000  0.000   1.0 |
 |  0.92  0.83  0.14  1  1  1  0.000  0.000  1.000  1.000  0.000  0.000   1.0 |
 |  0.92  0.83  0.14  1  2  1  0.000  0.000  1.000  1.000  0.000  0.000   1.0 |
 |  0.92  0.83  0.14  1  3  1  0.000  0.000  1.000  1.000  0.000  0.000   1.0 |
 |  0.66  0.83  0.00  1  1  1  0.000  0.000  1.000  1.000  0.000  0.000   1.0 |
 |  0.66  0.83  0.00  1  2  1  0.000  0.000  1.000  1.000  0.000  0.000   1.0 |
 |  0.66  0.83  0.00  1  3  1  0.000  0.000  1.000  1.000  0.000  0.000   1.0 |
 |  0.67  0.84  0.15  1  1  1  0.000  0.000  1.000  1.000  0.000  0.000   1.0 |
 |  0.67  0.84  0.15  1  2  1  0.000  0.000  1.000  1.000  0.000  0.000   1.0 |
 |  0.67  0.84  0.15  1  3  1  0.000  0.000  1.000  1.000  0.000  0.000   1.0 |
 |  0.41  0.83  0.01  1  1  1  0.000  0.000  1.000  1.000  0.000  0.000   1.0 |
 |  0.41  0.83  0.01  1  2  1  0.000  0.000  1.000  1.000  0.000  0.000   1.0 |
 |  0.41  0.83  0.01  1  3  1  0.000  0.000  1.000  1.000  0.000  0.000   1.0 |
 |  0.43  0.86  0.15  1  1  1  0.000  0.000  1.000  1.000  0.000  0.000   1.0 |
 |  0.43  0.86  0.15  1  2  1  0.000  0.000  1.000  1.000  0.000  0.000   1.0 |
 |  0.43  0.86  0.15  1  3  1  0.000  0.000  1.000  1.000  0.000  0.000   1.0 |
 |  0.17  0.83  0.00  1  1  1  0.000  0.000  1.000  1.000  0.000  0.000   1.0 |
 |  0.17  0.83  0.00  1  2  1  0.000  0.000  1.000  1.000  0.000  0.000   1.0 |
 |  0.17  0.83  0.00  1  3  1  0.000  0.000  1.000  1.000  0.000  0.000   1.0 |
 |  0.16  0.84  0.15  1  1  1  0.000  0.000  1.000  1.000  0.000  0.000   1.0 |
 |  0.16  0.84  0.15  1  2  1  0.000  0.000  1.000  1.000  0.000  0.000   1.0 |
 |  0.16  0.84  0.15  1  3  1  0.000  0.000  1.000  1.000  0.000  0.000   1.0 |
 |  0.67  0.33 -0.00  1  1  1  0.000  0.000  1.000  1.000  0.000  0.000   1.0 |
 |  0.67  0.33 -0.00  1  2  1  0.000  0.000  1.000  1.000  0.000  0.000   1.0 |
 |  0.67  0.33 -0.00  1  3  1  0.000  0.000  1.000  1.000  0.000  0.000   1.0 |
 |  0.67  0.33  0.14  1  1  1  0.000  0.000  1.000  1.000  0.000  0.000   1.0 |
 |  0.67  0.33  0.14  1  2  1  0.000  0.000  1.000  1.000  0.000  0.000   1.0 |
 |  0.67  0.33  0.14  1  3  1  0.000  0.000  1.000  1.000  0.000  0.000   1.0 |
 |  0.67  0.58 -0.00  1  1  1  0.000  0.000  1.000  1.000  0.000  0.000   1.0 |
 |  0.67  0.58 -0.00  1  2  1  0.000  0.000  1.000  1.000  0.000  0.000   1.0 |
 |  0.67  0.58 -0.00  1  3  1  0.000  0.000  1.000  1.000  0.000  0.000   1.0 |
 |  0.67  0.58  0.14  1  1  1  0.000  0.000  1.000  1.000  0.000  0.000   1.0 |
 |  0.67  0.58  0.14  1  2  1  0.000  0.000  1.000  1.000  0.000  0.000   1.0 |
 |  0.67  0.58  0.14  1  3  1  0.000  0.000  1.000  1.000  0.000  0.000   1.0 |
 |  0.41  0.59  0.01  1  1  1  0.000  0.000  1.000  1.000  0.000  0.000   1.0 |
 |  0.41  0.59  0.01  1  2  1  0.000  0.000  1.000  1.000  0.000  0.000   1.0 |
 |  0.41  0.59  0.01  1  3  1  0.000  0.000  1.000  1.000  0.000  0.000   1.0 |
 |  0.43  0.57  0.15  1  1  1  0.000  0.000  1.000  1.000  0.000  0.000   1.0 |
 |  0.43  0.57  0.15  1  2  1  0.000  0.000  1.000  1.000  0.000  0.000   1.0 |
 |  0.43  0.57  0.15  1  3  1  0.000  0.000  1.000  1.000  0.000  0.000   1.0 |
 |  0.42  0.33 -0.00  1  1  1  0.000  0.000  1.000  1.000  0.000  0.000   1.0 |
 |  0.42  0.33 -0.00  1  2  1  0.000  0.000  1.000  1.000  0.000  0.000   1.0 |
 |  0.42  0.33 -0.00  1  3  1  0.000  0.000  1.000  1.000  0.000  0.000   1.0 |
 |  0.42  0.33  0.14  1  1  1  0.000  0.000  1.000  1.000  0.000  0.000   1.0 |
 |  0.42  0.33  0.14  1  2  1  0.000  0.000  1.000  1.000  0.000  0.000   1.0 |
 |  0.42  0.33  0.14  1  3  1  0.000  0.000  1.000  1.000  0.000  0.000   1.0 |
 |  0.17  0.34  0.00  1  1  1  0.000  0.000  1.000  1.000  0.000  0.000   1.0 |
 |  0.17  0.34  0.00  1  2  1  0.000  0.000  1.000  1.000  0.000  0.000   1.0 |
 |  0.17  0.34  0.00  1  3  1  0.000  0.000  1.000  1.000  0.000  0.000   1.0 |
 |  0.16  0.33  0.15  1  1  1  0.000  0.000  1.000  1.000  0.000  0.000   1.0 |
 |  0.16  0.33  0.15  1  2  1  0.000  0.000  1.000  1.000  0.000  0.000   1.0 |
 |  0.16  0.33  0.15  1  3  1  0.000  0.000  1.000  1.000  0.000  0.000   1.0 |
 |  0.17  0.59  0.01  1  1  1  0.000  0.000  1.000  1.000  0.000  0.000   1.0 |
 |  0.17  0.59  0.01  1  2  1  0.000  0.000  1.000  1.000  0.000  0.000   1.0 |
 |  0.17  0.59  0.01  1  3  1  0.000  0.000  1.000  1.000  0.000  0.000   1.0 |
 |  0.14  0.57  0.15  1  1  1  0.000  0.000  1.000  1.000  0.000  0.000   1.0 |
 |  0.14  0.57  0.15  1  2  1  0.000  0.000  1.000  1.000  0.000  0.000   1.0 |
 |  0.14  0.57  0.15  1  3  1  0.000  0.000  1.000  1.000  0.000  0.000   1.0 |
 +----------------------------------------------------------------------------+
  
                                ------------
                                K-POINT GRID
                                ------------
  
             Grid size =  4 x  4 x  1      Total points =   16
  
 *----------------------------------------------------------------------------*
 | k-point      Fractional Coordinate        Cartesian Coordinate (Ang^-1)    |
 +----------------------------------------------------------------------------+
 |     1    0.00000   0.00000   0.00000   |    0.00000   0.00000   0.00000    |
 |     2    0.00000   0.25000   0.00000   |    0.00000   0.13159   0.00000    |
 |     3    0.00000   0.50000   0.00000   |    0.00000   0.26317   0.00000    |
 |     4    0.00000   0.75000   0.00000   |    0.00000   0.39476   0.00000    |
 |     5    0.25000   0.00000   0.00000   |    0.11396   0.06579   0.00000    |
 |     6    0.25000   0.25000   0.00000   |    0.11396   0.19738   0.00000    |
 |     7    0.25000   0.50000   0.00000   |    0.11396   0.32896   0.00000    |
 |     8    0.25000   0.75000   0.00000   |    0.11396   0.46055   0.00000    |
 |     9    0.50000   0.00000   0.00000   |    0.22791   0.13159   0.00000    |
 |    10    0.50000   0.25000   0.00000   |    0.22791   0.26317   0.00000    |
 |    11    0.50000   0.50000   0.00000   |    0.22791   0.39476   0.00000    |
 |    12    0.50000   0.75000   0.00000   |    0.22791   0.52634   0.00000    |
 |    13    0.75000   0.00000   0.00000   |    0.34187   0.19738   0.00000    |
 |    14    0.75000   0.25000   0.00000   |    0.34187   0.32896   0.00000    |
 |    15    0.75000   0.50000   0.00000   |    0.34187   0.46055   0.00000    |
 |    16    0.75000   0.75000   0.00000   |    0.34187   0.59214   0.00000    |
 *----------------------------------------------------------------------------*
  
  
 *---------------------------------- MAIN ------------------------------------*
 |  Number of Wannier Functions               :               181             |
 |  Number of Objective Wannier Functions     :               181             |
 |  Number of input Bloch states              :               450             |
 |  Output verbosity (1=low, 5=high)          :                 3             |
 |  Timing Level (1=low, 5=high)              :                 1             |
 |  Optimisation (0=memory, 3=speed)          :                 3             |
 |  Length Unit                               :               Ang             |
 |  Post-processing setup (write *.nnkp)      :                 F             |
 |  Using Gamma-only branch of algorithms     :                 F             |
 |  CP code post-processing                   :                 F             |
 |  Wavefunction (UNK) file-type              :       unformatted             |
 |  Wavefunction spin channel                 :                up             |
 *----------------------------------------------------------------------------*
 *------------------------------- WANNIERISE ---------------------------------*
 |  Total number of iterations                :               500             |
 |  Number of CG steps before reset           :                 5             |
 |  Trial step length for line search         :             2.000             |
 |  Convergence tolerence                     :         0.100E-09             |
 |  Convergence window                        :                -1             |
 |  Iterations between writing output         :                50             |
 |  Iterations between backing up to disk     :               100             |
 |  Write r^2_nm to file                      :                 F             |
 |  Write xyz WF centres to file              :                 T             |
 |  Write on-site energies <0n|H|0n> to file  :                 F             |
 |  Use guiding centre to control phases      :                 T             |
 |  Use phases for initial projections        :                 F             |
 |  Iterations before starting guiding centres:                 0             |
 |  Iterations between using guiding centres  :                 1             |
 |  Perform selective localization            :                 F             |
 |  Use constrains in selective localization  :                 F             |
 |  Value of the Lagrange multiplier          :         0.100E+01             |
 *----------------------------------------------------------------------------*
 *------------------------------- DISENTANGLE --------------------------------*
 |  Using band disentanglement                :                 T             |
 |  Total number of iterations                :              4000             |
 |  Mixing ratio                              :             0.500             |
 |  Convergence tolerence                     :         1.000E-10             |
 |  Convergence window                        :                 3             |
 *----------------------------------------------------------------------------*
 *-------------------------------- PLOTTING ----------------------------------*
 |  Plotting Wannier functions                :                 F             |
 |   Size of supercell for plotting           :     2x    2x    2             |
 |   Plotting mode (molecule or crystal)      :           crystal             |
 |   Plotting format                          :          xcrysden             |
 |   Plot radius                              :             3.500             |
 |   Plot scale                               :             1.000             |
 *----------------------------------------------------------------------------*
 |  Plotting Fermi surface                    :                 F             |
 |   Number of plotting points (along b_1)    :                50             |
 |   Plotting format                          :          xcrysden             |
 *----------------------------------------------------------------------------*
 |  Plotting interpolated bandstructure       :                 T             |
 |   Number of K-path sections                :                 3             |
 |   Divisions along first K-path section     :               100             |
 |   Output format                            :           gnuplot             |
 |   Output mode                              :               s-k             |
 *----------------------------------------------------------------------------*
 |   K-space path sections:                                                   |
 |    From: Γ      0.000  0.000  0.000     To: M       0.500  0.000  0.000   |
 |    From: M       0.500  0.000  0.000     To: K       0.333  0.333  0.000   |
 |    From: K       0.333  0.333  0.000     To: Γ      0.000  0.000  0.000   |
 *----------------------------------------------------------------------------*
 |  Plotting Hamiltonian in WF basis          :                 T             |
 *----------------------------------------------------------------------------*
 |  Writing data for Van der Waals post-proc  :                 F             |
 *----------------------------------------------------------------------------*
 *------------------------------- TRANSPORT ----------------------------------*
 |  Transport mode                            :              bulk             |
 |   Hamiltonian from external files          :                 F             |
 |   System extended in                       :              none             |
 |   Centre of the unit cell to which WF are translated (fract. coords):      |
 |                                       0.000000,    0.000000,    0.000000   |
 |  Fermi energy (eV)                         :             0.000             |
 *----------------------------------------------------------------------------*
 Time to read parameters        0.038 (sec)

 *---------------------------------- K-MESH ----------------------------------*
 +----------------------------------------------------------------------------+
 |                    Distance to Nearest-Neighbour Shells                    |
 |                    ------------------------------------                    |
 |          Shell             Distance (Ang^-1)          Multiplicity         |
 |          -----             -----------------          ------------         |
 |             1                   0.131586                      6            |
 |             2                   0.227913                      6            |
 |             3                   0.263171                      6            |
 |             4                   0.265883                      2            |
 |             5                   0.296662                     12            |
 |             6                   0.348143                     12            |
 |             7                   0.350197                     12            |
 |             8                   0.374103                     12            |
 |             9                   0.394757                      6            |
 |            10                   0.438061                     24            |
 |            11                   0.455826                      6            |
 |            12                   0.474439                     12            |
 |            13                   0.475948                     12            |
 |            14                   0.526343                      6            |
 |            15                   0.527704                     12            |
 |            16                   0.531765                      2            |
 |            17                   0.543862                     24            |
 |            18                   0.547804                     12            |
 |            19                   0.573569                     12            |
 |            20                   0.578549                     12            |
 |            21                   0.589686                     12            |
 |            22                   0.593324                     12            |
 |            23                   0.603001                     12            |
 |            24                   0.632198                     24            |
 |            25                   0.635592                     24            |
 |            26                   0.657928                      6            |
 |            27                   0.659018                     24            |
 |            28                   0.662274                     12            |
 |            29                   0.683739                      6            |
 |            30                   0.696286                     12            |
 |            31                   0.700394                     12            |
 |            32                   0.709622                     12            |
 |            33                   0.712647                     24            |
 |            34                   0.732638                     12            |
 |            35                   0.733616                     12            |
 |            36                   0.745324                     24            |
 +----------------------------------------------------------------------------+
 | The b-vectors are chosen automatically                                     |
 | Shell:  1 Multiplicity:  6                                                 |
 | b-vector 1 :        0.000000    0.131586    0.000000      (Ang^-1)         |
 | b-vector 2 :        0.113957    0.065793    0.000000      (Ang^-1)         |
 | b-vector 3 :        0.000000   -0.131586    0.000000      (Ang^-1)         |
 | b-vector 4 :        0.113957   -0.065793    0.000000      (Ang^-1)         |
 | b-vector 5 :       -0.113957   -0.065793    0.000000      (Ang^-1)         |
 | b-vector 6 :       -0.113957    0.065793    0.000000      (Ang^-1)         |
 | Shell:  1 w_b   19.2513662      (Ang^2)                                    |
 | B1 condition is not satisfied: Adding another shell                        |
 | Shell:  2 Multiplicity:  6                                                 |
 | b-vector 1 :        0.113957    0.197379    0.000000      (Ang^-1)         |
 | b-vector 2 :        0.113957   -0.197379    0.000000      (Ang^-1)         |
 | b-vector 3 :        0.227913   -0.000000    0.000000      (Ang^-1)         |
 | b-vector 4 :       -0.227913    0.000000    0.000000      (Ang^-1)         |
 | b-vector 5 :       -0.113957    0.197379    0.000000      (Ang^-1)         |
 | b-vector 6 :       -0.113957   -0.197379    0.000000      (Ang^-1)         |
 | SVD found small singular value, Rejecting this shell and trying the next   |
 | Shell:  3 Multiplicity:  6                                                 |
 | b-vector 1 :        0.000000    0.263171    0.000000      (Ang^-1)         |
 | b-vector 2 :        0.227913    0.131586    0.000000      (Ang^-1)         |
 | b-vector 3 :        0.000000   -0.263171    0.000000      (Ang^-1)         |
 | b-vector 4 :        0.227913   -0.131586    0.000000      (Ang^-1)         |
 | b-vector 5 :       -0.227913   -0.131586    0.000000      (Ang^-1)         |
 | b-vector 6 :       -0.227913    0.131586    0.000000      (Ang^-1)         |
 | This shell is linearly dependent on existing shells: Trying next shell     |
 | Shell:  4 Multiplicity:  2                                                 |
 | b-vector 1 :        0.000000    0.000000    0.265883      (Ang^-1)         |
 | b-vector 2 :        0.000000    0.000000   -0.265883      (Ang^-1)         |
 | Shell:  1 w_b   19.2513662      (Ang^2)                                    |
 | Shell:  2 w_b    7.0727819      (Ang^2)                                    |
 | The following shells are used:   1,  4                                     |
 +----------------------------------------------------------------------------+
 |                        Shell   # Nearest-Neighbours                        |
 |                        -----   --------------------                        |
 |                          1               6                                 |
 |                          4               2                                 |
 +----------------------------------------------------------------------------+
 | Completeness relation is fully satisfied [Eq. (B1), PRB 56, 12847 (1997)]  |
 +----------------------------------------------------------------------------+
 |                  b_k Vectors (Ang^-1) and Weights (Ang^2)                  |
 |                  ----------------------------------------                  |
 |            No.         b_k(x)      b_k(y)      b_k(z)        w_b           |
 |            ---        --------------------------------     --------        |
 |             1         0.000000    0.131586    0.000000    19.251366        |
 |             2         0.113957    0.065793    0.000000    19.251366        |
 |             3         0.000000   -0.131586    0.000000    19.251366        |
 |             4         0.113957   -0.065793    0.000000    19.251366        |
 |             5        -0.113957   -0.065793    0.000000    19.251366        |
 |             6        -0.113957    0.065793    0.000000    19.251366        |
 |             7         0.000000    0.000000    0.265883     7.072782        |
 |             8         0.000000    0.000000   -0.265883     7.072782        |
 +----------------------------------------------------------------------------+
 |                           b_k Directions (Ang^-1)                          |
 |                           -----------------------                          |
 |            No.           x           y           z                         |
 |            ---        --------------------------------                     |
 |             1         0.000000    0.131586    0.000000                     |
 |             2         0.113957    0.065793    0.000000                     |
 |             3         0.113957   -0.065793    0.000000                     |
 |             4         0.000000    0.000000    0.265883                     |
 +----------------------------------------------------------------------------+
  
 Time to get kmesh              0.018 (sec)
 *============================================================================*
 |                              MEMORY ESTIMATE                               |
 |         Maximum RAM allocated during each phase of the calculation         |
 *============================================================================*
 |                        Disentanglement          550.06 Mb                  |
 |                            Wannierise:          183.41 Mb                  |
 |                                                                            |
 |   N.B. by setting optimisation=0 memory usage will be reduced to:          |
 |                        Disentanglement          550.06 Mb                  |
 |                            Wannierise:          119.42 Mb                  |
 |   However, this will result in more i/o and slow down the calculation      |
 |                          plot_wannier:          183.41 Mb                  |
 *----------------------------------------------------------------------------*
  
 Starting a new Wannier90 calculation ...


 Reading overlaps from 1Fe_centreconf.down.mmn    :  Created on 11Jul2023 at 19:59:39

 Reading projections from 1Fe_centreconf.down.amn :  Created on 11Jul2023 at 19:41: 7

 Time to read overlaps         65.349 (sec)

 *------------------------------- DISENTANGLE --------------------------------*
 +----------------------------------------------------------------------------+
 |                              Energy  Windows                               |
 |                              ---------------                               |
 |                   Outer:  -30.00000  to   30.00000  (eV)                   |
 |                   Inner:   -6.00000  to    0.50000  (eV)                   |
 +----------------------------------------------------------------------------+
 |                        K-points with Frozen States                         |
 |                        ---------------------------                         |
 |     1     2     3     4     5     6     7     8     9    10    11    12    |
 |    13    14    15    16                                                    |
 +----------------------------------------------------------------------------+
   Number of target bands to extract:  181
 +----------------------------------------------------------------------------+
 |                                  Windows                                   |
 |                                  -------                                   |
 |               K-point      Ndimwin     Ndimfroz    Nfirstwin               |
 |               ----------------------------------------------               |
 |                   1          382          110          69                  |
 |                   2          382          109          69                  |
 |                   3          382          107          69                  |
 |                   4          382          109          69                  |
 |                   5          382          109          69                  |
 |                   6          382          109          69                  |
 |                   7          382          109          69                  |
 |                   8          382          109          69                  |
 |                   9          382          107          69                  |
 |                  10          382          109          69                  |
 |                  11          382          107          69                  |
 |                  12          382          109          69                  |
 |                  13          382          109          69                  |
 |                  14          382          109          69                  |
 |                  15          382          109          69                  |
 |                  16          382          109          69                  |
 +----------------------------------------------------------------------------+

                   Unitarised projection of Wannier functions                  
                   ------------------------------------------                  
   A_mn = <psi_m|g_n> --> S = A.A^+ --> U = S^-1/2.A
   In dis_project... done
   Using an inner window (linner = T)
   In dis_proj_froz...
 K-point   1 ndimwin: 382 we want the 71 leading eigenvector(s) of QPQ
  lambda(  1)= -0.000000000000
  lambda(  2)= -0.000000000000
  lambda(  3)= -0.000000000000
  lambda(  4)= -0.000000000000
  lambda(  5)= -0.000000000000
  lambda(  6)= -0.000000000000
  lambda(  7)= -0.000000000000
  lambda(  8)= -0.000000000000
  lambda(  9)= -0.000000000000
  lambda( 10)= -0.000000000000
  lambda( 11)= -0.000000000000
  lambda( 12)= -0.000000000000
  lambda( 13)= -0.000000000000
  lambda( 14)= -0.000000000000
  lambda( 15)= -0.000000000000
  lambda( 16)= -0.000000000000
  lambda( 17)= -0.000000000000
  lambda( 18)= -0.000000000000
  lambda( 19)= -0.000000000000
  lambda( 20)= -0.000000000000
  lambda( 21)= -0.000000000000
  lambda( 22)= -0.000000000000
  lambda( 23)= -0.000000000000
  lambda( 24)= -0.000000000000
  lambda( 25)= -0.000000000000
  lambda( 26)= -0.000000000000
  lambda( 27)= -0.000000000000
  lambda( 28)= -0.000000000000
  lambda( 29)= -0.000000000000
  lambda( 30)= -0.000000000000
  lambda( 31)= -0.000000000000
  lambda( 32)= -0.000000000000
  lambda( 33)= -0.000000000000
  lambda( 34)= -0.000000000000
  lambda( 35)= -0.000000000000
  lambda( 36)= -0.000000000000
  lambda( 37)= -0.000000000000
  lambda( 38)= -0.000000000000
  lambda( 39)= -0.000000000000
  lambda( 40)= -0.000000000000
  lambda( 41)= -0.000000000000
  lambda( 42)= -0.000000000000
  lambda( 43)= -0.000000000000
  lambda( 44)= -0.000000000000
  lambda( 45)= -0.000000000000
  lambda( 46)= -0.000000000000
  lambda( 47)= -0.000000000000
  lambda( 48)= -0.000000000000
  lambda( 49)= -0.000000000000
  lambda( 50)= -0.000000000000
  lambda( 51)= -0.000000000000
  lambda( 52)= -0.000000000000
  lambda( 53)= -0.000000000000
  lambda( 54)= -0.000000000000
  lambda( 55)= -0.000000000000
  lambda( 56)= -0.000000000000
  lambda( 57)= -0.000000000000
  lambda( 58)= -0.000000000000
  lambda( 59)= -0.000000000000
  lambda( 60)= -0.000000000000
  lambda( 61)= -0.000000000000
  lambda( 62)= -0.000000000000
  lambda( 63)= -0.000000000000
  lambda( 64)= -0.000000000000
  lambda( 65)= -0.000000000000
  lambda( 66)= -0.000000000000
  lambda( 67)= -0.000000000000
  lambda( 68)= -0.000000000000
  lambda( 69)= -0.000000000000
  lambda( 70)= -0.000000000000
  lambda( 71)= -0.000000000000
  lambda( 72)= -0.000000000000
  lambda( 73)= -0.000000000000
  lambda( 74)= -0.000000000000
  lambda( 75)= -0.000000000000
  lambda( 76)= -0.000000000000
  lambda( 77)= -0.000000000000
  lambda( 78)= -0.000000000000
  lambda( 79)= -0.000000000000
  lambda( 80)= -0.000000000000
  lambda( 81)= -0.000000000000
  lambda( 82)= -0.000000000000
  lambda( 83)= -0.000000000000
  lambda( 84)= -0.000000000000
  lambda( 85)= -0.000000000000
  lambda( 86)= -0.000000000000
  lambda( 87)= -0.000000000000
  lambda( 88)= -0.000000000000
  lambda( 89)= -0.000000000000
  lambda( 90)= -0.000000000000
  lambda( 91)= -0.000000000000
  lambda( 92)= -0.000000000000
  lambda( 93)= -0.000000000000
  lambda( 94)= -0.000000000000
  lambda( 95)= -0.000000000000
  lambda( 96)= -0.000000000000
  lambda( 97)= -0.000000000000
  lambda( 98)= -0.000000000000
  lambda( 99)= -0.000000000000
  lambda(100)= -0.000000000000
  lambda(101)=  0.000000000000
  lambda(102)=  0.000000000000
  lambda(103)=  0.000000000000
  lambda(104)=  0.000000000000
  lambda(105)=  0.000000000000
  lambda(106)=  0.000000000000
  lambda(107)=  0.000000000000
  lambda(108)=  0.000000000000
  lambda(109)=  0.000000000000
  lambda(110)=  0.000000000000
  lambda(111)=  0.000000000000
  lambda(112)=  0.000000000000
  lambda(113)=  0.000000000000
  lambda(114)=  0.000000000000
  lambda(115)=  0.000000000000
  lambda(116)=  0.000000000000
  lambda(117)=  0.000000000000
  lambda(118)=  0.000000000000
  lambda(119)=  0.000000000000
  lambda(120)=  0.000000000000
  lambda(121)=  0.000000000000
  lambda(122)=  0.000000000000
  lambda(123)=  0.000000000000
  lambda(124)=  0.000000000000
  lambda(125)=  0.000000000000
  lambda(126)=  0.000000000000
  lambda(127)=  0.000000000000
  lambda(128)=  0.000000000000
  lambda(129)=  0.000000000000
  lambda(130)=  0.000000000000
  lambda(131)=  0.000000000000
  lambda(132)=  0.000000000000
  lambda(133)=  0.000000000000
  lambda(134)=  0.000000000000
  lambda(135)=  0.000000000000
  lambda(136)=  0.000000000000
  lambda(137)=  0.000000000000
  lambda(138)=  0.000000000000
  lambda(139)=  0.000000000000
  lambda(140)=  0.000000000000
  lambda(141)=  0.000000000000
  lambda(142)=  0.000000000000
  lambda(143)=  0.000000000000
  lambda(144)=  0.000000000000
  lambda(145)=  0.000000000000
  lambda(146)=  0.000000000000
  lambda(147)=  0.000000000000
  lambda(148)=  0.000000000000
  lambda(149)=  0.000000000000
  lambda(150)=  0.000000000000
  lambda(151)=  0.000000000000
  lambda(152)=  0.000000000000
  lambda(153)=  0.000000000000
  lambda(154)=  0.000000000000
  lambda(155)=  0.000000000000
  lambda(156)=  0.000000000000
  lambda(157)=  0.000000000000
  lambda(158)=  0.000000000000
  lambda(159)=  0.000000000000
  lambda(160)=  0.000000000000
  lambda(161)=  0.000000000000
  lambda(162)=  0.000000000000
  lambda(163)=  0.000000000000
  lambda(164)=  0.000000000000
  lambda(165)=  0.000000000000
  lambda(166)=  0.000000000000
  lambda(167)=  0.000000000000
  lambda(168)=  0.000000000000
  lambda(169)=  0.000000000000
  lambda(170)=  0.000000000000
  lambda(171)=  0.000000000000
  lambda(172)=  0.000000000000
  lambda(173)=  0.000000000000
  lambda(174)=  0.000000000000
  lambda(175)=  0.000000000000
  lambda(176)=  0.000000000000
  lambda(177)=  0.000000000000
  lambda(178)=  0.000000000000
  lambda(179)=  0.000000000000
  lambda(180)=  0.000000000000
  lambda(181)=  0.000000000000
  lambda(182)=  0.000000000000
  lambda(183)=  0.000000000000
  lambda(184)=  0.000000000000
  lambda(185)=  0.000000000000
  lambda(186)=  0.000000000000
  lambda(187)=  0.000000000000
  lambda(188)=  0.000000000000
  lambda(189)=  0.000000000000
  lambda(190)=  0.000000000000
  lambda(191)=  0.000000000000
  lambda(192)=  0.000000000000
  lambda(193)=  0.000000000000
  lambda(194)=  0.000000000000
  lambda(195)=  0.000000000000
  lambda(196)=  0.000000000000
  lambda(197)=  0.000000000000
  lambda(198)=  0.000000000000
  lambda(199)=  0.000000000000
  lambda(200)=  0.000000000000
  lambda(201)=  0.000000000000
  lambda(202)=  0.000000000119
  lambda(203)=  0.000000001668
  lambda(204)=  0.000000024483
  lambda(205)=  0.000005043484
  lambda(206)=  0.000005493949
  lambda(207)=  0.000006513970
  lambda(208)=  0.000010152711
  lambda(209)=  0.000010232456
  lambda(210)=  0.000020654538
  lambda(211)=  0.000021003721
  lambda(212)=  0.000033012022
  lambda(213)=  0.000034812527
  lambda(214)=  0.000070931878
  lambda(215)=  0.000083891484
  lambda(216)=  0.000105044879
  lambda(217)=  0.000172033732
  lambda(218)=  0.000249707582
  lambda(219)=  0.000279514171
  lambda(220)=  0.000360800329
  lambda(221)=  0.000362706163
  lambda(222)=  0.000501704629
  lambda(223)=  0.000502926760
  lambda(224)=  0.000507399725
  lambda(225)=  0.000541572509
  lambda(226)=  0.000571126913
  lambda(227)=  0.000666308468
  lambda(228)=  0.000834684452
  lambda(229)=  0.000848265760
  lambda(230)=  0.001167672216
  lambda(231)=  0.001264802340
  lambda(232)=  0.001300932667
  lambda(233)=  0.002029585141
  lambda(234)=  0.002036372077
  lambda(235)=  0.003265046762
  lambda(236)=  0.003289104724
  lambda(237)=  0.003540943904
  lambda(238)=  0.004484629632
  lambda(239)=  0.004490579890
  lambda(240)=  0.004502110378
  lambda(241)=  0.008665007894
  lambda(242)=  0.009895191031
  lambda(243)=  0.010011130593
  lambda(244)=  0.010148030268
  lambda(245)=  0.010659063013
  lambda(246)=  0.010662350046
  lambda(247)=  0.015211354689
  lambda(248)=  0.016664222006
  lambda(249)=  0.019800290852
  lambda(250)=  0.020660895680
  lambda(251)=  0.021317135658
  lambda(252)=  0.021487050804
  lambda(253)=  0.022510321507
  lambda(254)=  0.023629386194
  lambda(255)=  0.025535972965
  lambda(256)=  0.026721485966
  lambda(257)=  0.028643708161
  lambda(258)=  0.029278523994
  lambda(259)=  0.031665846344
  lambda(260)=  0.031974972347
  lambda(261)=  0.033244908794
  lambda(262)=  0.036369060740
  lambda(263)=  0.037519797827
  lambda(264)=  0.038931578975
  lambda(265)=  0.040207005680
  lambda(266)=  0.041870464088
  lambda(267)=  0.043165419925
  lambda(268)=  0.044296870521
  lambda(269)=  0.044950172305
  lambda(270)=  0.054987028539
  lambda(271)=  0.055364627254
  lambda(272)=  0.059909062075
  lambda(273)=  0.060072068643
  lambda(274)=  0.061543753410
  lambda(275)=  0.062022522373
  lambda(276)=  0.062025353363
  lambda(277)=  0.063450616634
  lambda(278)=  0.063685043609
  lambda(279)=  0.063743683636
  lambda(280)=  0.064668155205
  lambda(281)=  0.065662089001
  lambda(282)=  0.066604416276
  lambda(283)=  0.066611805895
  lambda(284)=  0.067598179197
  lambda(285)=  0.067675202501
  lambda(286)=  0.068647385182
  lambda(287)=  0.073836073716
  lambda(288)=  0.075233783500
  lambda(289)=  0.075858893068
  lambda(290)=  0.079399393010
  lambda(291)=  0.080212216152
  lambda(292)=  0.083499133986
  lambda(293)=  0.098665665666
  lambda(294)=  0.102000225411
  lambda(295)=  0.109569001799
  lambda(296)=  0.109761614928
  lambda(297)=  0.128638005144
  lambda(298)=  0.134679956214
  lambda(299)=  0.135473824940
  lambda(300)=  0.136696694191
  lambda(301)=  0.143700114569
  lambda(302)=  0.146377612923
  lambda(303)=  0.150360935353
  lambda(304)=  0.151049317278
  lambda(305)=  0.159085496826
  lambda(306)=  0.172570080416
  lambda(307)=  0.172595492584
  lambda(308)=  0.173145813590
  lambda(309)=  0.174107658960
  lambda(310)=  0.174110363803
  lambda(311)=  0.208198587094
  lambda(312)=  1.000000000000
  lambda(313)=  1.000000000000
  lambda(314)=  1.000000000000
  lambda(315)=  1.000000000000
  lambda(316)=  1.000000000000
  lambda(317)=  1.000000000000
  lambda(318)=  1.000000000000
  lambda(319)=  1.000000000000
  lambda(320)=  1.000000000000
  lambda(321)=  1.000000000000
  lambda(322)=  1.000000000000
  lambda(323)=  1.000000000000
  lambda(324)=  1.000000000000
  lambda(325)=  1.000000000000
  lambda(326)=  1.000000000000
  lambda(327)=  1.000000000000
  lambda(328)=  1.000000000000
  lambda(329)=  1.000000000000
  lambda(330)=  1.000000000000
  lambda(331)=  1.000000000000
  lambda(332)=  1.000000000000
  lambda(333)=  1.000000000000
  lambda(334)=  1.000000000000
  lambda(335)=  1.000000000000
  lambda(336)=  1.000000000000
  lambda(337)=  1.000000000000
  lambda(338)=  1.000000000000
  lambda(339)=  1.000000000000
  lambda(340)=  1.000000000000
  lambda(341)=  1.000000000000
  lambda(342)=  1.000000000000
  lambda(343)=  1.000000000000
  lambda(344)=  1.000000000000
  lambda(345)=  1.000000000000
  lambda(346)=  1.000000000000
  lambda(347)=  1.000000000000
  lambda(348)=  1.000000000000
  lambda(349)=  1.000000000000
  lambda(350)=  1.000000000000
  lambda(351)=  1.000000000000
  lambda(352)=  1.000000000000
  lambda(353)=  1.000000000000
  lambda(354)=  1.000000000000
  lambda(355)=  1.000000000000
  lambda(356)=  1.000000000000
  lambda(357)=  1.000000000000
  lambda(358)=  1.000000000000
  lambda(359)=  1.000000000000
  lambda(360)=  1.000000000000
  lambda(361)=  1.000000000000
  lambda(362)=  1.000000000000
  lambda(363)=  1.000000000000
  lambda(364)=  1.000000000000
  lambda(365)=  1.000000000000
  lambda(366)=  1.000000000000
  lambda(367)=  1.000000000000
  lambda(368)=  1.000000000000
  lambda(369)=  1.000000000000
  lambda(370)=  1.000000000000
  lambda(371)=  1.000000000000
  lambda(372)=  1.000000000000
  lambda(373)=  1.000000000000
  lambda(374)=  1.000000000000
  lambda(375)=  1.000000000000
  lambda(376)=  1.000000000000
  lambda(377)=  1.000000000000
  lambda(378)=  1.000000000000
  lambda(379)=  1.000000000000
  lambda(380)=  1.000000000000
  lambda(381)=  1.000000000000
  lambda(382)=  1.000000000000

 K-point   2 ndimwin: 382 we want the 72 leading eigenvector(s) of QPQ
  lambda(  1)= -0.000000000000
  lambda(  2)= -0.000000000000
  lambda(  3)= -0.000000000000
  lambda(  4)= -0.000000000000
  lambda(  5)= -0.000000000000
  lambda(  6)= -0.000000000000
  lambda(  7)= -0.000000000000
  lambda(  8)= -0.000000000000
  lambda(  9)= -0.000000000000
  lambda( 10)= -0.000000000000
  lambda( 11)= -0.000000000000
  lambda( 12)= -0.000000000000
  lambda( 13)= -0.000000000000
  lambda( 14)= -0.000000000000
  lambda( 15)= -0.000000000000
  lambda( 16)= -0.000000000000
  lambda( 17)= -0.000000000000
  lambda( 18)= -0.000000000000
  lambda( 19)= -0.000000000000
  lambda( 20)= -0.000000000000
  lambda( 21)= -0.000000000000
  lambda( 22)= -0.000000000000
  lambda( 23)= -0.000000000000
  lambda( 24)= -0.000000000000
  lambda( 25)= -0.000000000000
  lambda( 26)= -0.000000000000
  lambda( 27)= -0.000000000000
  lambda( 28)= -0.000000000000
  lambda( 29)= -0.000000000000
  lambda( 30)= -0.000000000000
  lambda( 31)= -0.000000000000
  lambda( 32)= -0.000000000000
  lambda( 33)= -0.000000000000
  lambda( 34)= -0.000000000000
  lambda( 35)= -0.000000000000
  lambda( 36)= -0.000000000000
  lambda( 37)= -0.000000000000
  lambda( 38)= -0.000000000000
  lambda( 39)= -0.000000000000
  lambda( 40)= -0.000000000000
  lambda( 41)= -0.000000000000
  lambda( 42)= -0.000000000000
  lambda( 43)= -0.000000000000
  lambda( 44)= -0.000000000000
  lambda( 45)= -0.000000000000
  lambda( 46)= -0.000000000000
  lambda( 47)= -0.000000000000
  lambda( 48)= -0.000000000000
  lambda( 49)= -0.000000000000
  lambda( 50)= -0.000000000000
  lambda( 51)= -0.000000000000
  lambda( 52)= -0.000000000000
  lambda( 53)= -0.000000000000
  lambda( 54)= -0.000000000000
  lambda( 55)= -0.000000000000
  lambda( 56)= -0.000000000000
  lambda( 57)= -0.000000000000
  lambda( 58)= -0.000000000000
  lambda( 59)= -0.000000000000
  lambda( 60)= -0.000000000000
  lambda( 61)= -0.000000000000
  lambda( 62)= -0.000000000000
  lambda( 63)= -0.000000000000
  lambda( 64)= -0.000000000000
  lambda( 65)= -0.000000000000
  lambda( 66)= -0.000000000000
  lambda( 67)= -0.000000000000
  lambda( 68)= -0.000000000000
  lambda( 69)= -0.000000000000
  lambda( 70)= -0.000000000000
  lambda( 71)= -0.000000000000
  lambda( 72)= -0.000000000000
  lambda( 73)= -0.000000000000
  lambda( 74)= -0.000000000000
  lambda( 75)= -0.000000000000
  lambda( 76)= -0.000000000000
  lambda( 77)= -0.000000000000
  lambda( 78)= -0.000000000000
  lambda( 79)= -0.000000000000
  lambda( 80)= -0.000000000000
  lambda( 81)= -0.000000000000
  lambda( 82)= -0.000000000000
  lambda( 83)= -0.000000000000
  lambda( 84)= -0.000000000000
  lambda( 85)= -0.000000000000
  lambda( 86)= -0.000000000000
  lambda( 87)= -0.000000000000
  lambda( 88)= -0.000000000000
  lambda( 89)= -0.000000000000
  lambda( 90)= -0.000000000000
  lambda( 91)= -0.000000000000
  lambda( 92)= -0.000000000000
  lambda( 93)= -0.000000000000
  lambda( 94)= -0.000000000000
  lambda( 95)= -0.000000000000
  lambda( 96)= -0.000000000000
  lambda( 97)= -0.000000000000
  lambda( 98)=  0.000000000000
  lambda( 99)=  0.000000000000
  lambda(100)=  0.000000000000
  lambda(101)=  0.000000000000
  lambda(102)=  0.000000000000
  lambda(103)=  0.000000000000
  lambda(104)=  0.000000000000
  lambda(105)=  0.000000000000
  lambda(106)=  0.000000000000
  lambda(107)=  0.000000000000
  lambda(108)=  0.000000000000
  lambda(109)=  0.000000000000
  lambda(110)=  0.000000000000
  lambda(111)=  0.000000000000
  lambda(112)=  0.000000000000
  lambda(113)=  0.000000000000
  lambda(114)=  0.000000000000
  lambda(115)=  0.000000000000
  lambda(116)=  0.000000000000
  lambda(117)=  0.000000000000
  lambda(118)=  0.000000000000
  lambda(119)=  0.000000000000
  lambda(120)=  0.000000000000
  lambda(121)=  0.000000000000
  lambda(122)=  0.000000000000
  lambda(123)=  0.000000000000
  lambda(124)=  0.000000000000
  lambda(125)=  0.000000000000
  lambda(126)=  0.000000000000
  lambda(127)=  0.000000000000
  lambda(128)=  0.000000000000
  lambda(129)=  0.000000000000
  lambda(130)=  0.000000000000
  lambda(131)=  0.000000000000
  lambda(132)=  0.000000000000
  lambda(133)=  0.000000000000
  lambda(134)=  0.000000000000
  lambda(135)=  0.000000000000
  lambda(136)=  0.000000000000
  lambda(137)=  0.000000000000
  lambda(138)=  0.000000000000
  lambda(139)=  0.000000000000
  lambda(140)=  0.000000000000
  lambda(141)=  0.000000000000
  lambda(142)=  0.000000000000
  lambda(143)=  0.000000000000
  lambda(144)=  0.000000000000
  lambda(145)=  0.000000000000
  lambda(146)=  0.000000000000
  lambda(147)=  0.000000000000
  lambda(148)=  0.000000000000
  lambda(149)=  0.000000000000
  lambda(150)=  0.000000000000
  lambda(151)=  0.000000000000
  lambda(152)=  0.000000000000
  lambda(153)=  0.000000000000
  lambda(154)=  0.000000000000
  lambda(155)=  0.000000000000
  lambda(156)=  0.000000000000
  lambda(157)=  0.000000000000
  lambda(158)=  0.000000000000
  lambda(159)=  0.000000000000
  lambda(160)=  0.000000000000
  lambda(161)=  0.000000000000
  lambda(162)=  0.000000000000
  lambda(163)=  0.000000000000
  lambda(164)=  0.000000000000
  lambda(165)=  0.000000000000
  lambda(166)=  0.000000000000
  lambda(167)=  0.000000000000
  lambda(168)=  0.000000000000
  lambda(169)=  0.000000000000
  lambda(170)=  0.000000000000
  lambda(171)=  0.000000000000
  lambda(172)=  0.000000000000
  lambda(173)=  0.000000000000
  lambda(174)=  0.000000000000
  lambda(175)=  0.000000000000
  lambda(176)=  0.000000000000
  lambda(177)=  0.000000000000
  lambda(178)=  0.000000000000
  lambda(179)=  0.000000000000
  lambda(180)=  0.000000000000
  lambda(181)=  0.000000000000
  lambda(182)=  0.000000000000
  lambda(183)=  0.000000000000
  lambda(184)=  0.000000000000
  lambda(185)=  0.000000000000
  lambda(186)=  0.000000000000
  lambda(187)=  0.000000000000
  lambda(188)=  0.000000000000
  lambda(189)=  0.000000000000
  lambda(190)=  0.000000000000
  lambda(191)=  0.000000000000
  lambda(192)=  0.000000000000
  lambda(193)=  0.000000000000
  lambda(194)=  0.000000000000
  lambda(195)=  0.000000000000
  lambda(196)=  0.000000000000
  lambda(197)=  0.000000000000
  lambda(198)=  0.000000000000
  lambda(199)=  0.000000000000
  lambda(200)=  0.000000000000
  lambda(201)=  0.000000000000
  lambda(202)=  0.000002693569
  lambda(203)=  0.000005754967
  lambda(204)=  0.000014078915
  lambda(205)=  0.000025283296
  lambda(206)=  0.000036128276
  lambda(207)=  0.000159935778
  lambda(208)=  0.000211291433
  lambda(209)=  0.000338651081
  lambda(210)=  0.000377001727
  lambda(211)=  0.000607689214
  lambda(212)=  0.000608016624
  lambda(213)=  0.000706316680
  lambda(214)=  0.000718547828
  lambda(215)=  0.000904573461
  lambda(216)=  0.000951579782
  lambda(217)=  0.001014140860
  lambda(218)=  0.001069964362
  lambda(219)=  0.001220354074
  lambda(220)=  0.001272506751
  lambda(221)=  0.001498746938
  lambda(222)=  0.001696890657
  lambda(223)=  0.001795986858
  lambda(224)=  0.002181821066
  lambda(225)=  0.002294774941
  lambda(226)=  0.002914831386
  lambda(227)=  0.003123227789
  lambda(228)=  0.003184188986
  lambda(229)=  0.003733690553
  lambda(230)=  0.003761449861
  lambda(231)=  0.004028158238
  lambda(232)=  0.004142413791
  lambda(233)=  0.004214372826
  lambda(234)=  0.005030357544
  lambda(235)=  0.005109261664
  lambda(236)=  0.005445437381
  lambda(237)=  0.005681086364
  lambda(238)=  0.006159926854
  lambda(239)=  0.006940497869
  lambda(240)=  0.007403041553
  lambda(241)=  0.007627551521
  lambda(242)=  0.008775104617
  lambda(243)=  0.011738164145
  lambda(244)=  0.012616928807
  lambda(245)=  0.013115885011
  lambda(246)=  0.013762229894
  lambda(247)=  0.016253213190
  lambda(248)=  0.018710347242
  lambda(249)=  0.019227789691
  lambda(250)=  0.019715140025
  lambda(251)=  0.021664097121
  lambda(252)=  0.022532056965
  lambda(253)=  0.022927299480
  lambda(254)=  0.024414464128
  lambda(255)=  0.025224052334
  lambda(256)=  0.025801106731
  lambda(257)=  0.026927645322
  lambda(258)=  0.027538362506
  lambda(259)=  0.028493772358
  lambda(260)=  0.029851709197
  lambda(261)=  0.032249175471
  lambda(262)=  0.033158647649
  lambda(263)=  0.035551028997
  lambda(264)=  0.037965143655
  lambda(265)=  0.038210152813
  lambda(266)=  0.043482865886
  lambda(267)=  0.045115342954
  lambda(268)=  0.047619852917
  lambda(269)=  0.051471444825
  lambda(270)=  0.054671898027
  lambda(271)=  0.054693379649
  lambda(272)=  0.057829955348
  lambda(273)=  0.058152611746
  lambda(274)=  0.059921443900
  lambda(275)=  0.060485143138
  lambda(276)=  0.062836827578
  lambda(277)=  0.063063771761
  lambda(278)=  0.064001623880
  lambda(279)=  0.064021746435
  lambda(280)=  0.065667769585
  lambda(281)=  0.065765139205
  lambda(282)=  0.066206476069
  lambda(283)=  0.066834668126
  lambda(284)=  0.069066101746
  lambda(285)=  0.071077652995
  lambda(286)=  0.071333122747
  lambda(287)=  0.076127741397
  lambda(288)=  0.079087605072
  lambda(289)=  0.088700315154
  lambda(290)=  0.090901263835
  lambda(291)=  0.093107255777
  lambda(292)=  0.097471311651
  lambda(293)=  0.100415956012
  lambda(294)=  0.106291559676
  lambda(295)=  0.106402768329
  lambda(296)=  0.115502745093
  lambda(297)=  0.116578317814
  lambda(298)=  0.136468317616
  lambda(299)=  0.140752432670
  lambda(300)=  0.153127436467
  lambda(301)=  0.153813901715
  lambda(302)=  0.155072746065
  lambda(303)=  0.159488746332
  lambda(304)=  0.161160960897
  lambda(305)=  0.165320831536
  lambda(306)=  0.169543822453
  lambda(307)=  0.169848787861
  lambda(308)=  0.173341636471
  lambda(309)=  0.174375673876
  lambda(310)=  0.202477795228
  lambda(311)=  1.000000000000
  lambda(312)=  1.000000000000
  lambda(313)=  1.000000000000
  lambda(314)=  1.000000000000
  lambda(315)=  1.000000000000
  lambda(316)=  1.000000000000
  lambda(317)=  1.000000000000
  lambda(318)=  1.000000000000
  lambda(319)=  1.000000000000
  lambda(320)=  1.000000000000
  lambda(321)=  1.000000000000
  lambda(322)=  1.000000000000
  lambda(323)=  1.000000000000
  lambda(324)=  1.000000000000
  lambda(325)=  1.000000000000
  lambda(326)=  1.000000000000
  lambda(327)=  1.000000000000
  lambda(328)=  1.000000000000
  lambda(329)=  1.000000000000
  lambda(330)=  1.000000000000
  lambda(331)=  1.000000000000
  lambda(332)=  1.000000000000
  lambda(333)=  1.000000000000
  lambda(334)=  1.000000000000
  lambda(335)=  1.000000000000
  lambda(336)=  1.000000000000
  lambda(337)=  1.000000000000
  lambda(338)=  1.000000000000
  lambda(339)=  1.000000000000
  lambda(340)=  1.000000000000
  lambda(341)=  1.000000000000
  lambda(342)=  1.000000000000
  lambda(343)=  1.000000000000
  lambda(344)=  1.000000000000
  lambda(345)=  1.000000000000
  lambda(346)=  1.000000000000
  lambda(347)=  1.000000000000
  lambda(348)=  1.000000000000
  lambda(349)=  1.000000000000
  lambda(350)=  1.000000000000
  lambda(351)=  1.000000000000
  lambda(352)=  1.000000000000
  lambda(353)=  1.000000000000
  lambda(354)=  1.000000000000
  lambda(355)=  1.000000000000
  lambda(356)=  1.000000000000
  lambda(357)=  1.000000000000
  lambda(358)=  1.000000000000
  lambda(359)=  1.000000000000
  lambda(360)=  1.000000000000
  lambda(361)=  1.000000000000
  lambda(362)=  1.000000000000
  lambda(363)=  1.000000000000
  lambda(364)=  1.000000000000
  lambda(365)=  1.000000000000
  lambda(366)=  1.000000000000
  lambda(367)=  1.000000000000
  lambda(368)=  1.000000000000
  lambda(369)=  1.000000000000
  lambda(370)=  1.000000000000
  lambda(371)=  1.000000000000
  lambda(372)=  1.000000000000
  lambda(373)=  1.000000000000
  lambda(374)=  1.000000000000
  lambda(375)=  1.000000000000
  lambda(376)=  1.000000000000
  lambda(377)=  1.000000000000
  lambda(378)=  1.000000000000
  lambda(379)=  1.000000000000
  lambda(380)=  1.000000000000
  lambda(381)=  1.000000000000
  lambda(382)=  1.000000000000

 K-point   3 ndimwin: 382 we want the 74 leading eigenvector(s) of QPQ
  lambda(  1)= -0.000000000000
  lambda(  2)= -0.000000000000
  lambda(  3)= -0.000000000000
  lambda(  4)= -0.000000000000
  lambda(  5)= -0.000000000000
  lambda(  6)= -0.000000000000
  lambda(  7)= -0.000000000000
  lambda(  8)= -0.000000000000
  lambda(  9)= -0.000000000000
  lambda( 10)= -0.000000000000
  lambda( 11)= -0.000000000000
  lambda( 12)= -0.000000000000
  lambda( 13)= -0.000000000000
  lambda( 14)= -0.000000000000
  lambda( 15)= -0.000000000000
  lambda( 16)= -0.000000000000
  lambda( 17)= -0.000000000000
  lambda( 18)= -0.000000000000
  lambda( 19)= -0.000000000000
  lambda( 20)= -0.000000000000
  lambda( 21)= -0.000000000000
  lambda( 22)= -0.000000000000
  lambda( 23)= -0.000000000000
  lambda( 24)= -0.000000000000
  lambda( 25)= -0.000000000000
  lambda( 26)= -0.000000000000
  lambda( 27)= -0.000000000000
  lambda( 28)= -0.000000000000
  lambda( 29)= -0.000000000000
  lambda( 30)= -0.000000000000
  lambda( 31)= -0.000000000000
  lambda( 32)= -0.000000000000
  lambda( 33)= -0.000000000000
  lambda( 34)= -0.000000000000
  lambda( 35)= -0.000000000000
  lambda( 36)= -0.000000000000
  lambda( 37)= -0.000000000000
  lambda( 38)= -0.000000000000
  lambda( 39)= -0.000000000000
  lambda( 40)= -0.000000000000
  lambda( 41)= -0.000000000000
  lambda( 42)= -0.000000000000
  lambda( 43)= -0.000000000000
  lambda( 44)= -0.000000000000
  lambda( 45)= -0.000000000000
  lambda( 46)= -0.000000000000
  lambda( 47)= -0.000000000000
  lambda( 48)= -0.000000000000
  lambda( 49)= -0.000000000000
  lambda( 50)= -0.000000000000
  lambda( 51)= -0.000000000000
  lambda( 52)= -0.000000000000
  lambda( 53)= -0.000000000000
  lambda( 54)= -0.000000000000
  lambda( 55)= -0.000000000000
  lambda( 56)= -0.000000000000
  lambda( 57)= -0.000000000000
  lambda( 58)= -0.000000000000
  lambda( 59)= -0.000000000000
  lambda( 60)= -0.000000000000
  lambda( 61)= -0.000000000000
  lambda( 62)= -0.000000000000
  lambda( 63)= -0.000000000000
  lambda( 64)= -0.000000000000
  lambda( 65)= -0.000000000000
  lambda( 66)= -0.000000000000
  lambda( 67)= -0.000000000000
  lambda( 68)= -0.000000000000
  lambda( 69)= -0.000000000000
  lambda( 70)= -0.000000000000
  lambda( 71)= -0.000000000000
  lambda( 72)= -0.000000000000
  lambda( 73)= -0.000000000000
  lambda( 74)= -0.000000000000
  lambda( 75)= -0.000000000000
  lambda( 76)= -0.000000000000
  lambda( 77)= -0.000000000000
  lambda( 78)= -0.000000000000
  lambda( 79)= -0.000000000000
  lambda( 80)= -0.000000000000
  lambda( 81)= -0.000000000000
  lambda( 82)= -0.000000000000
  lambda( 83)= -0.000000000000
  lambda( 84)= -0.000000000000
  lambda( 85)= -0.000000000000
  lambda( 86)= -0.000000000000
  lambda( 87)= -0.000000000000
  lambda( 88)= -0.000000000000
  lambda( 89)= -0.000000000000
  lambda( 90)= -0.000000000000
  lambda( 91)= -0.000000000000
  lambda( 92)= -0.000000000000
  lambda( 93)= -0.000000000000
  lambda( 94)= -0.000000000000
  lambda( 95)= -0.000000000000
  lambda( 96)= -0.000000000000
  lambda( 97)= -0.000000000000
  lambda( 98)= -0.000000000000
  lambda( 99)= -0.000000000000
  lambda(100)= -0.000000000000
  lambda(101)= -0.000000000000
  lambda(102)= -0.000000000000
  lambda(103)= -0.000000000000
  lambda(104)= -0.000000000000
  lambda(105)= -0.000000000000
  lambda(106)= -0.000000000000
  lambda(107)= -0.000000000000
  lambda(108)=  0.000000000000
  lambda(109)=  0.000000000000
  lambda(110)=  0.000000000000
  lambda(111)=  0.000000000000
  lambda(112)=  0.000000000000
  lambda(113)=  0.000000000000
  lambda(114)=  0.000000000000
  lambda(115)=  0.000000000000
  lambda(116)=  0.000000000000
  lambda(117)=  0.000000000000
  lambda(118)=  0.000000000000
  lambda(119)=  0.000000000000
  lambda(120)=  0.000000000000
  lambda(121)=  0.000000000000
  lambda(122)=  0.000000000000
  lambda(123)=  0.000000000000
  lambda(124)=  0.000000000000
  lambda(125)=  0.000000000000
  lambda(126)=  0.000000000000
  lambda(127)=  0.000000000000
  lambda(128)=  0.000000000000
  lambda(129)=  0.000000000000
  lambda(130)=  0.000000000000
  lambda(131)=  0.000000000000
  lambda(132)=  0.000000000000
  lambda(133)=  0.000000000000
  lambda(134)=  0.000000000000
  lambda(135)=  0.000000000000
  lambda(136)=  0.000000000000
  lambda(137)=  0.000000000000
  lambda(138)=  0.000000000000
  lambda(139)=  0.000000000000
  lambda(140)=  0.000000000000
  lambda(141)=  0.000000000000
  lambda(142)=  0.000000000000
  lambda(143)=  0.000000000000
  lambda(144)=  0.000000000000
  lambda(145)=  0.000000000000
  lambda(146)=  0.000000000000
  lambda(147)=  0.000000000000
  lambda(148)=  0.000000000000
  lambda(149)=  0.000000000000
  lambda(150)=  0.000000000000
  lambda(151)=  0.000000000000
  lambda(152)=  0.000000000000
  lambda(153)=  0.000000000000
  lambda(154)=  0.000000000000
  lambda(155)=  0.000000000000
  lambda(156)=  0.000000000000
  lambda(157)=  0.000000000000
  lambda(158)=  0.000000000000
  lambda(159)=  0.000000000000
  lambda(160)=  0.000000000000
  lambda(161)=  0.000000000000
  lambda(162)=  0.000000000000
  lambda(163)=  0.000000000000
  lambda(164)=  0.000000000000
  lambda(165)=  0.000000000000
  lambda(166)=  0.000000000000
  lambda(167)=  0.000000000000
  lambda(168)=  0.000000000000
  lambda(169)=  0.000000000000
  lambda(170)=  0.000000000000
  lambda(171)=  0.000000000000
  lambda(172)=  0.000000000000
  lambda(173)=  0.000000000000
  lambda(174)=  0.000000000000
  lambda(175)=  0.000000000000
  lambda(176)=  0.000000000000
  lambda(177)=  0.000000000000
  lambda(178)=  0.000000000000
  lambda(179)=  0.000000000000
  lambda(180)=  0.000000000000
  lambda(181)=  0.000000000000
  lambda(182)=  0.000000000000
  lambda(183)=  0.000000000000
  lambda(184)=  0.000000000000
  lambda(185)=  0.000000000000
  lambda(186)=  0.000000000000
  lambda(187)=  0.000000000000
  lambda(188)=  0.000000000000
  lambda(189)=  0.000000000000
  lambda(190)=  0.000000000000
  lambda(191)=  0.000000000000
  lambda(192)=  0.000000000000
  lambda(193)=  0.000000000000
  lambda(194)=  0.000000000000
  lambda(195)=  0.000000000000
  lambda(196)=  0.000000000000
  lambda(197)=  0.000000000000
  lambda(198)=  0.000000000000
  lambda(199)=  0.000000000000
  lambda(200)=  0.000000000000
  lambda(201)=  0.000000000000
  lambda(202)=  0.000003246826
  lambda(203)=  0.000003539489
  lambda(204)=  0.000006087266
  lambda(205)=  0.000016434228
  lambda(206)=  0.000032019214
  lambda(207)=  0.000097727347
  lambda(208)=  0.000206829034
  lambda(209)=  0.000297303597
  lambda(210)=  0.000458372675
  lambda(211)=  0.000459432572
  lambda(212)=  0.000813447628
  lambda(213)=  0.000827101915
  lambda(214)=  0.001060151568
  lambda(215)=  0.001249466104
  lambda(216)=  0.001268385345
  lambda(217)=  0.001394362905
  lambda(218)=  0.001604132913
  lambda(219)=  0.001980553202
  lambda(220)=  0.002358612925
  lambda(221)=  0.002649847601
  lambda(222)=  0.002786564154
  lambda(223)=  0.002829667738
  lambda(224)=  0.002989024363
  lambda(225)=  0.003229950830
  lambda(226)=  0.003432131056
  lambda(227)=  0.004173918430
  lambda(228)=  0.004696848940
  lambda(229)=  0.006288124618
  lambda(230)=  0.007646019268
  lambda(231)=  0.007729565363
  lambda(232)=  0.008987099317
  lambda(233)=  0.009018595043
  lambda(234)=  0.009336777965
  lambda(235)=  0.009960298997
  lambda(236)=  0.010381902165
  lambda(237)=  0.011988625074
  lambda(238)=  0.012327579214
  lambda(239)=  0.012344969059
  lambda(240)=  0.012911026632
  lambda(241)=  0.013135718604
  lambda(242)=  0.014538820762
  lambda(243)=  0.015471172130
  lambda(244)=  0.017163812819
  lambda(245)=  0.017186637686
  lambda(246)=  0.017596749989
  lambda(247)=  0.018686208450
  lambda(248)=  0.019184773915
  lambda(249)=  0.019318432923
  lambda(250)=  0.020809151925
  lambda(251)=  0.022361456021
  lambda(252)=  0.022501048443
  lambda(253)=  0.023541031844
  lambda(254)=  0.024722439801
  lambda(255)=  0.025750149901
  lambda(256)=  0.026695261164
  lambda(257)=  0.028182433195
  lambda(258)=  0.028251697575
  lambda(259)=  0.030798254639
  lambda(260)=  0.031310252878
  lambda(261)=  0.033390308151
  lambda(262)=  0.036513421377
  lambda(263)=  0.039593573607
  lambda(264)=  0.041212001190
  lambda(265)=  0.043363422245
  lambda(266)=  0.044717754539
  lambda(267)=  0.049485759670
  lambda(268)=  0.053538264666
  lambda(269)=  0.055650122517
  lambda(270)=  0.057046355923
  lambda(271)=  0.058865932520
  lambda(272)=  0.059574410341
  lambda(273)=  0.059673340225
  lambda(274)=  0.061755427477
  lambda(275)=  0.061990927078
  lambda(276)=  0.062927472193
  lambda(277)=  0.063605294573
  lambda(278)=  0.066187417161
  lambda(279)=  0.066955799073
  lambda(280)=  0.067880555990
  lambda(281)=  0.070677427507
  lambda(282)=  0.072254911519
  lambda(283)=  0.074558200634
  lambda(284)=  0.076143236898
  lambda(285)=  0.079713398706
  lambda(286)=  0.079881286638
  lambda(287)=  0.081249822985
  lambda(288)=  0.085643979281
  lambda(289)=  0.089064217078
  lambda(290)=  0.097379785057
  lambda(291)=  0.099287863730
  lambda(292)=  0.101715470952
  lambda(293)=  0.105750423330
  lambda(294)=  0.108853138884
  lambda(295)=  0.109095879031
  lambda(296)=  0.111297483468
  lambda(297)=  0.139054204058
  lambda(298)=  0.140039267541
  lambda(299)=  0.148011423091
  lambda(300)=  0.148786601288
  lambda(301)=  0.155346252669
  lambda(302)=  0.158454545857
  lambda(303)=  0.165350084365
  lambda(304)=  0.165470077648
  lambda(305)=  0.171219968694
  lambda(306)=  0.171868210505
  lambda(307)=  0.175220638609
  lambda(308)=  0.195970012660
  lambda(309)=  1.000000000000
  lambda(310)=  1.000000000000
  lambda(311)=  1.000000000000
  lambda(312)=  1.000000000000
  lambda(313)=  1.000000000000
  lambda(314)=  1.000000000000
  lambda(315)=  1.000000000000
  lambda(316)=  1.000000000000
  lambda(317)=  1.000000000000
  lambda(318)=  1.000000000000
  lambda(319)=  1.000000000000
  lambda(320)=  1.000000000000
  lambda(321)=  1.000000000000
  lambda(322)=  1.000000000000
  lambda(323)=  1.000000000000
  lambda(324)=  1.000000000000
  lambda(325)=  1.000000000000
  lambda(326)=  1.000000000000
  lambda(327)=  1.000000000000
  lambda(328)=  1.000000000000
  lambda(329)=  1.000000000000
  lambda(330)=  1.000000000000
[...]
  WF centre and spread   95  (  5.167481,  1.053255,  3.489470 )     1.98204909
  WF centre and spread   96  (  5.151542,  1.046596,  3.295877 )     1.93561610
  WF centre and spread   97  (  5.162338,  1.071081,  3.296517 )     1.93521266
  WF centre and spread   98  (  8.614995,  0.967021, -0.158209 )     1.96995831
  WF centre and spread   99  (  8.621442,  0.955046,  0.023780 )     1.93350801
  WF centre and spread  100  (  8.619799,  0.992899,  0.021224 )     1.92710377
  WF centre and spread  101  (  8.616745,  1.053247,  3.489349 )     1.98215645
  WF centre and spread  102  (  8.632678,  1.046630,  3.295884 )     1.93561798
  WF centre and spread  103  (  8.621866,  1.071071,  3.296512 )     1.93525416
  WF centre and spread  104  ( 12.053235,  0.995920, -0.110034 )     1.95968979
  WF centre and spread  105  ( 12.056840,  0.981518,  0.077424 )     1.93495667
  WF centre and spread  106  ( 12.055616,  1.016450,  0.076271 )     1.93250930
  WF centre and spread  107  ( 12.058365,  0.992813,  3.509748 )     1.95599790
  WF centre and spread  108  ( 12.059499,  0.980949,  3.318162 )     1.93573412
  WF centre and spread  109  ( 12.057957,  1.014222,  3.318372 )     1.93792763
  WF centre and spread  110  ( 10.358507,  3.987696, -0.158087 )     1.97019518
  WF centre and spread  111  ( 10.361710,  3.969904,  0.024174 )     1.93025351
  WF centre and spread  112  ( 10.359069,  4.003951,  0.020756 )     1.93039650
  WF centre and spread  113  ( 10.285210,  3.943061,  3.489375 )     1.98198591
  WF centre and spread  114  ( 10.296573,  3.925653,  3.294715 )     1.93606424
  WF centre and spread  115  ( 10.283225,  3.951920,  3.297644 )     1.93478013
  WF centre and spread  116  (  8.636180,  6.971752, -0.158159 )     1.96983962
  WF centre and spread  117  (  8.629639,  6.961175,  0.019603 )     1.92778518
  WF centre and spread  118  (  8.633373,  7.000623,  0.025421 )     1.93312397
  WF centre and spread  119  (  8.560606,  6.930899,  3.489101 )     1.98257592
  WF centre and spread  120  (  8.554843,  6.921173,  3.298038 )     1.93442005
  WF centre and spread  121  (  8.554593,  6.966443,  3.294623 )     1.93546153
  WF centre and spread  122  (  6.892037,  9.935476, -0.109985 )     1.96000349
  WF centre and spread  123  (  6.892094,  9.924974,  0.075740 )     1.93171414
  WF centre and spread  124  (  6.892128,  9.961924,  0.077916 )     1.93549411
  WF centre and spread  125  (  6.892074,  9.941192,  3.509723 )     1.95604330
  WF centre and spread  126  (  6.892009,  9.928544,  3.318460 )     1.93934395
  WF centre and spread  127  (  6.892109,  9.964331,  3.318133 )     1.93425632
  WF centre and spread  128  (  3.396432,  9.915841, -0.052384 )     1.97577658
  WF centre and spread  129  (  3.388750,  9.904217,  0.132038 )     1.92934939
  WF centre and spread  130  (  3.400549,  9.934859,  0.131771 )     1.93823460
  WF centre and spread  131  (  3.493883,  9.971486,  3.569099 )     1.96317504
  WF centre and spread  132  (  3.482594,  9.953785,  3.378962 )     1.95025134
  WF centre and spread  133  (  3.487692,  9.990290,  3.380488 )     1.94874402
  WF centre and spread  134  (  0.000007,  9.898968,  0.034714 )     1.99901976
  WF centre and spread  135  (  0.000008,  9.894389,  0.192449 )     1.92974766
  WF centre and spread  136  ( -0.000011,  9.941088,  0.190391 )     1.93760750
  WF centre and spread  137  ( -0.000001, 10.181073,  3.669001 )     1.98691338
  WF centre and spread  138  (  0.000061, 10.180887,  3.498263 )     1.90578641
  WF centre and spread  139  ( -0.000047, 10.210865,  3.542139 )     1.99026401
  WF centre and spread  140  ( -3.396397,  9.915892, -0.052429 )     1.97567889
  WF centre and spread  141  ( -3.388720,  9.904223,  0.132041 )     1.92943736
  WF centre and spread  142  ( -3.400553,  9.934913,  0.131772 )     1.93827086
  WF centre and spread  143  ( -3.493842,  9.971440,  3.569214 )     1.96303010
  WF centre and spread  144  ( -3.482543,  9.953804,  3.378950 )     1.95026318
  WF centre and spread  145  ( -3.487671,  9.990240,  3.380499 )     1.94846807
  WF centre and spread  146  (  6.892040,  3.975235, -0.215033 )     1.98440712
  WF centre and spread  147  (  6.892044,  3.961420, -0.045722 )     1.92605659
  WF centre and spread  148  (  6.892071,  4.000018, -0.045784 )     1.92580973
  WF centre and spread  149  (  6.892118,  3.975291,  3.461725 )     1.97636603
  WF centre and spread  150  (  6.892116,  3.964972,  3.279396 )     1.92268487
  WF centre and spread  151  (  6.892096,  3.996513,  3.279452 )     1.92272482
  WF centre and spread  152  (  5.148017,  6.971804, -0.158206 )     1.96978927
  WF centre and spread  153  (  5.154448,  6.961093,  0.019568 )     1.92784252
  WF centre and spread  154  (  5.150724,  7.000599,  0.025437 )     1.93311238
  WF centre and spread  155  (  5.223587,  6.930919,  3.489086 )     1.98263568
  WF centre and spread  156  (  5.229331,  6.921227,  3.298065 )     1.93442095
  WF centre and spread  157  (  5.229574,  6.966431,  3.294621 )     1.93544690
  WF centre and spread  158  (  1.683616,  6.983047,  0.034258 )     1.99826312
  WF centre and spread  159  (  1.701189,  6.965970,  0.191042 )     1.93667352
  WF centre and spread  160  (  1.690435,  6.994832,  0.192046 )     1.93234914
  WF centre and spread  161  (  1.926441,  6.844950,  3.669098 )     1.98683099
  WF centre and spread  162  (  1.950635,  6.847761,  3.531313 )     1.96919423
  WF centre and spread  163  (  1.924406,  6.832812,  3.508832 )     1.92600143
  WF centre and spread  164  (  3.425681,  3.987609, -0.158093 )     1.97015280
  WF centre and spread  165  (  3.422415,  3.969919,  0.024183 )     1.93025314
  WF centre and spread  166  (  3.425079,  4.003997,  0.020775 )     1.93062525
  WF centre and spread  167  (  3.499003,  3.943072,  3.489479 )     1.98193725
  WF centre and spread  168  (  3.487557,  3.925673,  3.294711 )     1.93614808
  WF centre and spread  169  (  3.500957,  3.951966,  3.297671 )     1.93463574
  WF centre and spread  170  (  0.000064,  4.033194, -0.052171 )     1.97577944
  WF centre and spread  171  (  0.000047,  4.014728,  0.131546 )     1.94255582
  WF centre and spread  172  (  0.000015,  4.064688,  0.131971 )     1.92449726
  WF centre and spread  173  ( -0.000022,  3.920692,  3.569117 )     1.96394841
  WF centre and spread  174  (  0.000011,  3.913031,  3.381229 )     1.94765595
  WF centre and spread  175  (  0.000002,  3.957751,  3.378301 )     1.95008162
  WF centre and spread  176  ( -1.683638,  6.983026,  0.034267 )     1.99828454
  WF centre and spread  177  ( -1.701202,  6.965995,  0.191055 )     1.93668145
  WF centre and spread  178  ( -1.690425,  6.994806,  0.192060 )     1.93234151
  WF centre and spread  179  ( -1.926445,  6.844950,  3.669045 )     1.98692878
  WF centre and spread  180  ( -1.950812,  6.847861,  3.531291 )     1.96905707
  WF centre and spread  181  ( -1.924378,  6.832606,  3.508808 )     1.92586968
  Sum of centres and spreads (620.288150,923.165770,321.634815 )   324.41459212
 
         Spreads (Ang^2)       Omega I      =   308.159335168
        ================       Omega D      =     0.000113464
                               Omega OD     =    16.255143372
    Final Spread (Ang^2)       Omega Total  =   324.414592004
 ------------------------------------------------------------------------------
 Final centres (translated to home cell for writing xyz file)
  WF centre    1  (  0.000004,  7.958773,  3.784866 )
  WF centre    2  (  0.000005,  7.938923,  3.934953 )
  WF centre    3  (  0.000011,  7.979227,  3.934828 )
  WF centre    4  ( -0.000122,  7.847894,  3.910047 )
  WF centre    5  ( -0.000122,  8.065448,  3.910541 )
  WF centre    6  (  0.000032, -0.005515,  1.695454 )
  WF centre    7  ( -0.000008, -0.010634,  1.694907 )
  WF centre    8  ( -0.000006,  0.010695,  1.694887 )
  WF centre    9  (  0.000083,  0.157726,  1.695539 )
  WF centre   10  (  0.000212, -0.150502,  1.695492 )
  WF centre   11  (  3.472932, -0.003297,  1.703429 )
  WF centre   12  (  3.469006, -0.008918,  1.702614 )
  WF centre   13  (  3.471537,  0.011804,  1.702935 )
  WF centre   14  (  3.467809,  0.161827,  1.702526 )
  WF centre   15  (  3.488242, -0.146989,  1.703328 )
  WF centre   16  (  6.891936,  0.034107,  1.684719 )
  WF centre   17  (  6.892087,  0.039759,  1.687744 )
  WF centre   18  (  6.892086,  0.065028,  1.678872 )
  WF centre   19  (  6.891910,  0.212812,  1.678949 )
  WF centre   20  (  6.892372, -0.098131,  1.678490 )
  WF centre   21  ( 10.311282, -0.003409,  1.703434 )
  WF centre   22  ( 10.315159, -0.008930,  1.702601 )
  WF centre   23  ( 10.312609,  0.011808,  1.702860 )
  WF centre   24  ( 10.316387,  0.162098,  1.702511 )
  WF centre   25  ( 10.295892, -0.147060,  1.703325 )
  WF centre   26  (  8.584002,  2.996109,  1.608119 )
  WF centre   27  (  8.584858,  2.990346,  1.615856 )
  WF centre   28  (  8.584378,  3.013629,  1.615178 )
  WF centre   29  (  8.590315,  3.163953,  1.615466 )
  WF centre   30  (  8.562174,  2.857434,  1.614718 )
  WF centre   31  (  6.892091,  5.925336,  1.608128 )
  WF centre   32  (  6.892092,  5.921493,  1.615914 )
  WF centre   33  (  6.892059,  5.945600,  1.617021 )
  WF centre   34  (  6.892120,  6.074818,  1.613385 )
  WF centre   35  (  6.892053,  5.781898,  1.614879 )
  WF centre   36  (  5.159528,  8.921029,  1.702934 )
  WF centre   37  (  5.157627,  8.918536,  1.707205 )
  WF centre   38  (  5.158516,  8.944299,  1.698270 )
  WF centre   39  (  5.163452,  9.079907,  1.703640 )
  WF centre   40  (  5.147580,  8.776232,  1.702612 )
  WF centre   41  (  1.730100,  8.950570,  1.878609 )
  WF centre   42  (  1.709139,  8.940985,  1.873583 )
  WF centre   43  (  1.725123,  8.958374,  1.877484 )
  WF centre   44  (  1.711036,  9.101327,  1.861249 )
  WF centre   45  (  1.698257,  8.791664,  1.863991 )
  WF centre   46  ( -1.730111,  8.950591,  1.878589 )
  WF centre   47  ( -1.709154,  8.940981,  1.873549 )
  WF centre   48  ( -1.725123,  8.958388,  1.877459 )
  WF centre   49  ( -1.711040,  9.101470,  1.861226 )
  WF centre   50  ( -1.698264,  8.791746,  1.863977 )
  WF centre   51  ( -5.159611,  8.921054,  1.702985 )
  WF centre   52  ( -5.157637,  8.918537,  1.707122 )
  WF centre   53  ( -5.158511,  8.944340,  1.698287 )
  WF centre   54  ( -5.163345,  9.079786,  1.703611 )
  WF centre   55  ( -5.147555,  8.776627,  1.702631 )
  WF centre   56  (  5.200105,  2.996062,  1.608094 )
  WF centre   57  (  5.199247,  2.990358,  1.615951 )
  WF centre   58  (  5.199788,  3.013600,  1.615255 )
  WF centre   59  (  5.193923,  3.163983,  1.615462 )
  WF centre   60  (  5.221984,  2.857437,  1.614727 )
  WF centre   61  (  3.482639,  5.938058,  1.683808 )
  WF centre   62  (  3.492613,  5.931745,  1.682011 )
  WF centre   63  (  3.490294,  5.953364,  1.686067 )
  WF centre   64  (  3.493155,  6.104732,  1.678612 )
  WF centre   65  (  3.489473,  5.791538,  1.678291 )
  WF centre   66  (  0.000045,  5.955776,  1.879695 )
  WF centre   67  (  0.000002,  5.954547,  1.876954 )
  WF centre   68  ( -0.000001,  5.996399,  1.867634 )
  WF centre   69  (  0.000136,  6.150802,  1.868075 )
  WF centre   70  (  0.000016,  5.835819,  1.862491 )
  WF centre   71  (  1.739566,  2.999223,  1.704224 )
  WF centre   72  (  1.734968,  2.993832,  1.697623 )
  WF centre   73  (  1.737719,  3.015531,  1.706039 )
  WF centre   74  (  1.735375,  3.171633,  1.703350 )
  WF centre   75  (  1.748223,  2.857497,  1.703641 )
  WF centre   76  ( -1.739576,  2.999175,  1.704280 )
  WF centre   77  ( -1.734947,  2.993833,  1.697496 )
  WF centre   78  ( -1.737713,  3.015536,  1.705992 )
  WF centre   79  ( -1.735519,  3.171514,  1.703354 )
  WF centre   80  ( -1.747830,  2.857488,  1.703630 )
  WF centre   81  ( -3.482631,  5.938086,  1.683740 )
  WF centre   82  ( -3.492621,  5.931749,  1.681984 )
  WF centre   83  ( -3.490293,  5.953354,  1.686068 )
  WF centre   84  ( -3.493304,  6.105035,  1.678584 )
  WF centre   85  ( -3.489113,  5.791389,  1.678324 )
  WF centre   86  (  1.730945,  0.995988, -0.110062 )
  WF centre   87  (  1.727327,  0.981479,  0.077416 )
  WF centre   88  (  1.728529,  1.016409,  0.076280 )
  WF centre   89  (  1.725732,  0.992787,  3.509804 )
  WF centre   90  (  1.724724,  0.980923,  3.318166 )
  WF centre   91  (  1.726207,  1.014336,  3.318384 )
  WF centre   92  (  5.169178,  0.967086, -0.158165 )
  WF centre   93  (  5.162589,  0.955069,  0.023818 )
  WF centre   94  (  5.164345,  0.992867,  0.021231 )
  WF centre   95  (  5.167481,  1.053255,  3.489470 )
  WF centre   96  (  5.151542,  1.046596,  3.295877 )
  WF centre   97  (  5.162338,  1.071081,  3.296517 )
  WF centre   98  (  8.614995,  0.967021, -0.158209 )
  WF centre   99  (  8.621442,  0.955046,  0.023780 )
  WF centre  100  (  8.619799,  0.992899,  0.021224 )
  WF centre  101  (  8.616745,  1.053247,  3.489349 )
  WF centre  102  (  8.632678,  1.046630,  3.295884 )
  WF centre  103  (  8.621866,  1.071071,  3.296512 )
  WF centre  104  ( 12.053235,  0.995920, -0.110034 )
  WF centre  105  ( 12.056840,  0.981518,  0.077424 )
  WF centre  106  ( 12.055616,  1.016450,  0.076271 )
  WF centre  107  ( 12.058365,  0.992813,  3.509748 )
  WF centre  108  ( 12.059499,  0.980949,  3.318162 )
  WF centre  109  ( 12.057957,  1.014222,  3.318372 )
  WF centre  110  ( 10.358507,  3.987696, -0.158087 )
  WF centre  111  ( 10.361710,  3.969904,  0.024174 )
  WF centre  112  ( 10.359069,  4.003951,  0.020756 )
  WF centre  113  ( 10.285210,  3.943061,  3.489375 )
  WF centre  114  ( 10.296573,  3.925653,  3.294715 )
  WF centre  115  ( 10.283225,  3.951920,  3.297644 )
  WF centre  116  (  8.636180,  6.971752, -0.158159 )
  WF centre  117  (  8.629639,  6.961175,  0.019603 )
  WF centre  118  (  8.633373,  7.000623,  0.025421 )
  WF centre  119  (  8.560606,  6.930899,  3.489101 )
  WF centre  120  (  8.554843,  6.921173,  3.298038 )
  WF centre  121  (  8.554593,  6.966443,  3.294623 )
  WF centre  122  (  6.892037,  9.935476, -0.109985 )
  WF centre  123  (  6.892094,  9.924974,  0.075740 )
  WF centre  124  (  6.892128,  9.961924,  0.077916 )
  WF centre  125  (  6.892074,  9.941192,  3.509723 )
  WF centre  126  (  6.892009,  9.928544,  3.318460 )
  WF centre  127  (  6.892109,  9.964331,  3.318133 )
  WF centre  128  (  3.396432,  9.915841, -0.052384 )
  WF centre  129  (  3.388750,  9.904217,  0.132038 )
  WF centre  130  (  3.400549,  9.934859,  0.131771 )
  WF centre  131  (  3.493883,  9.971486,  3.569099 )
  WF centre  132  (  3.482594,  9.953785,  3.378962 )
  WF centre  133  (  3.487692,  9.990290,  3.380488 )
  WF centre  134  (  0.000007,  9.898968,  0.034714 )
  WF centre  135  (  0.000008,  9.894389,  0.192449 )
  WF centre  136  ( -0.000011,  9.941088,  0.190391 )
  WF centre  137  ( -0.000001, 10.181073,  3.669001 )
  WF centre  138  (  0.000061, 10.180887,  3.498263 )
  WF centre  139  ( -0.000047, 10.210865,  3.542139 )
  WF centre  140  ( -3.396397,  9.915892, -0.052429 )
  WF centre  141  ( -3.388720,  9.904223,  0.132041 )
  WF centre  142  ( -3.400553,  9.934913,  0.131772 )
  WF centre  143  ( -3.493842,  9.971440,  3.569214 )
  WF centre  144  ( -3.482543,  9.953804,  3.378950 )
  WF centre  145  ( -3.487671,  9.990240,  3.380499 )
  WF centre  146  (  6.892040,  3.975235, -0.215033 )
  WF centre  147  (  6.892044,  3.961420, -0.045722 )
  WF centre  148  (  6.892071,  4.000018, -0.045784 )
  WF centre  149  (  6.892118,  3.975291,  3.461725 )
  WF centre  150  (  6.892116,  3.964972,  3.279396 )
  WF centre  151  (  6.892096,  3.996513,  3.279452 )
  WF centre  152  (  5.148017,  6.971804, -0.158206 )
  WF centre  153  (  5.154448,  6.961093,  0.019568 )
  WF centre  154  (  5.150724,  7.000599,  0.025437 )
  WF centre  155  (  5.223587,  6.930919,  3.489086 )
  WF centre  156  (  5.229331,  6.921227,  3.298065 )
  WF centre  157  (  5.229574,  6.966431,  3.294621 )
  WF centre  158  (  1.683616,  6.983047,  0.034258 )
  WF centre  159  (  1.701189,  6.965970,  0.191042 )
  WF centre  160  (  1.690435,  6.994832,  0.192046 )
  WF centre  161  (  1.926441,  6.844950,  3.669098 )
  WF centre  162  (  1.950635,  6.847761,  3.531313 )
  WF centre  163  (  1.924406,  6.832812,  3.508832 )
  WF centre  164  (  3.425681,  3.987609, -0.158093 )
  WF centre  165  (  3.422415,  3.969919,  0.024183 )
  WF centre  166  (  3.425079,  4.003997,  0.020775 )
  WF centre  167  (  3.499003,  3.943072,  3.489479 )
  WF centre  168  (  3.487557,  3.925673,  3.294711 )
  WF centre  169  (  3.500957,  3.951966,  3.297671 )
  WF centre  170  (  0.000064,  4.033194, -0.052171 )
  WF centre  171  (  0.000047,  4.014728,  0.131546 )
  WF centre  172  (  0.000015,  4.064688,  0.131971 )
  WF centre  173  ( -0.000022,  3.920692,  3.569117 )
  WF centre  174  (  0.000011,  3.913031,  3.381229 )
  WF centre  175  (  0.000002,  3.957751,  3.378301 )
  WF centre  176  ( -1.683638,  6.983026,  0.034267 )
  WF centre  177  ( -1.701202,  6.965995,  0.191055 )
  WF centre  178  ( -1.690425,  6.994806,  0.192060 )
  WF centre  179  ( -1.926445,  6.844950,  3.669045 )
  WF centre  180  ( -1.950812,  6.847861,  3.531291 )
  WF centre  181  ( -1.924378,  6.832606,  3.508808 )
 ------------------------------------------------------------------------------
 

 Wannier centres written to file 1Fe_centreconf.down_centres.xyz
  
  Omega Invariant:   1-s^2 =   308.159335168 (Ang^2)
                   -2log s =   313.663818533 (Ang^2)
                    acos^2 =   311.795860024 (Ang^2)
 Time for wannierise           45.509 (sec)

 Writing checkpoint file 1Fe_centreconf.down.chk... done

 *---------------------------------------------------------------------------*
 |                               PLOTTING                                    |
 *---------------------------------------------------------------------------*
 
   19 lattice points in Wigner-Seitz supercell:

      vector  -2  -2   0   degeneracy:  2
      vector  -2  -1   0   degeneracy:  1
      vector  -2   0   0   degeneracy:  2
      vector  -1  -2   0   degeneracy:  1
      vector  -1  -1   0   degeneracy:  1
      vector  -1   0   0   degeneracy:  1
      vector  -1   1   0   degeneracy:  1
      vector   0  -2   0   degeneracy:  2
      vector   0  -1   0   degeneracy:  1
      vector   0   0   0   degeneracy:  1
      vector   0   1   0   degeneracy:  1
      vector   0   2   0   degeneracy:  2
      vector   1  -1   0   degeneracy:  1
      vector   1   0   0   degeneracy:  1
      vector   1   1   0   degeneracy:  1
      vector   1   2   0   degeneracy:  1
      vector   2   0   0   degeneracy:  2
      vector   2   1   0   degeneracy:  1
      vector   2   2   0   degeneracy:  2
  tot =       16.000
  mp_grid product =           16
 
 Calculating interpolated band-structure
 
 Time to calculate interpolated band structure      23.202 (sec)
 
 Time for plotting             26.592 (sec)
 Total Execution Time         506.184 (sec)

 *===========================================================================*
 |                             TIMING INFORMATION                            |
 *===========================================================================*
 |    Tag                                                Ncalls      Time (s)|
 |---------------------------------------------------------------------------|
 |kmesh: get                                        :         1         0.018|
 |overlap: allocate                                 :         1         0.006|
 |overlap: read                                     :         1        65.342|
 |dis: main                                         :         1       368.612|
 |wann: main                                        :         1        45.509|
 |plot: main                                        :         1        26.592|
 *---------------------------------------------------------------------------*
 
 All done: wannier90 exiting
