 
             +---------------------------------------------------+
             |                                                   |
             |                   WANNIER90                       |
             |                                                   |
             +---------------------------------------------------+
             |                                                   |
             |        Welcome to the Maximally-Localized         |
             |        Generalized Wannier Functions code         |
             |            http://www.wannier.org                 |
             |                                                   |
             |                                                   |
             |  Wannier90 Developer Group:                       |
             |    Giovanni Pizzi    (EPFL)                       |
             |    Valerio Vitale    (Cambridge)                  |
             |    David Vanderbilt  (Rutgers University)         |
             |    Nicola Marzari    (EPFL)                       |
             |    Ivo Souza         (Universidad del Pais Vasco) |
             |    Arash A. Mostofi  (Imperial College London)    |
             |    Jonathan R. Yates (University of Oxford)       |
             |                                                   |
             |  For the full list of Wannier90 3.x authors,      |
             |  please check the code documentation and the      |
             |  README on the GitHub page of the code            |
             |                                                   |
             |                                                   |
             |  Please cite                                      |
             |                                                   |
             |  [ref] "Wannier90 as a community code:            |
             |        new features and applications",            |
             |        G. Pizzi et al., J. Phys. Cond. Matt. 32,  |
             |        165902 (2020).                             |
             |        http://doi.org/10.1088/1361-648X/ab51ff    |
             |                                                   |
             |  in any publications arising from the use of      |
             |  this code. For the method please cite            |
             |                                                   |
             |  [ref] "Maximally Localized Generalised Wannier   |
             |         Functions for Composite Energy Bands"     |
             |         N. Marzari and D. Vanderbilt              |
             |         Phys. Rev. B 56 12847 (1997)              |
             |                                                   |
             |  [ref] "Maximally Localized Wannier Functions     |
             |         for Entangled Energy Bands"               |
             |         I. Souza, N. Marzari and D. Vanderbilt    |
             |         Phys. Rev. B 65 035109 (2001)             |
             |                                                   |
             |                                                   |
             | Copyright (c) 1996-2020                           |
             |        The Wannier90 Developer Group and          |
             |        individual contributors                    |
             |                                                   |
             |      Release: 3.1.0        5th March    2020      |
             |                                                   |
             | This program is free software; you can            |
             | redistribute it and/or modify it under the terms  |
             | of the GNU General Public License as published by |
             | the Free Software Foundation; either version 2 of |
             | the License, or (at your option) any later version|
             |                                                   |
             | This program is distributed in the hope that it   |
             | will be useful, but WITHOUT ANY WARRANTY; without |
             | even the implied warranty of MERCHANTABILITY or   |
             | FITNESS FOR A PARTICULAR PURPOSE. See the GNU     |
             | General Public License for more details.          |
             |                                                   |
             | You should have received a copy of the GNU General|
             | Public License along with this program; if not,   |
             | write to the Free Software Foundation, Inc.,      |
             | 675 Mass Ave, Cambridge, MA 02139, USA.           |
             |                                                   |
             +---------------------------------------------------+
             |    Execution started on  6Oct2023 at 17:12:48     |
             +---------------------------------------------------+
 
 ******************************************************************************
 * -> Using CODATA 2006 constant values                                       *
 *    (http://physics.nist.gov/cuu/Constants/index.html)                      *
 * -> Using Bohr value from CODATA                                            *
 ******************************************************************************
 

 Running in parallel on 144 CPUs

 
                                    ------
                                    SYSTEM
                                    ------
 
                              Lattice Vectors (Ang)
                    a_1    13.784171   0.000000   0.000000
                    a_2    -6.892085  11.937442   0.000000
                    a_3     0.000000   0.000000  23.631430
 
                   Unit Cell Volume:    3888.49848  (Ang^3)
 
                        Reciprocal-Space Vectors (Ang^-1)
                    b_1     0.455826   0.263171   0.000000
                    b_2     0.000000   0.526343   0.000000
                    b_3     0.000000   0.000000   0.265883
  
 *----------------------------------------------------------------------------*
 |   Site       Fractional Coordinate          Cartesian Coordinate (Ang)     |
 +----------------------------------------------------------------------------+
 | Nb   1   0.00000   0.00000   0.07097   |    0.00000   0.00000   1.67715    |
 | Nb   2   0.25000   0.00000   0.07097   |    3.44604   0.00000   1.67715    |
 | Nb   3   0.50000   0.00000   0.07097   |    6.89209   0.00000   1.67715    |
 | Nb   4   0.75000   0.00000   0.07097   |   10.33813   0.00000   1.67715    |
 | Nb   5   0.75000   0.25000   0.07097   |    8.61511   2.98436   1.67715    |
 | Nb   6   0.75000   0.50000   0.07097   |    6.89209   5.96872   1.67715    |
 | Nb   7   0.75000   0.75000   0.07097   |    5.16906   8.95308   1.67715    |
 | Nb   8   0.50000   0.75000   0.07097   |    1.72302   8.95308   1.67715    |
 | Nb   9   0.25000   0.75000   0.07097   |   -1.72302   8.95308   1.67715    |
 | Nb  10   0.00000   0.75000   0.07097   |   -5.16906   8.95308   1.67715    |
 | Nb  11   0.50000   0.25000   0.07097   |    5.16906   2.98436   1.67715    |
 | Nb  12   0.50000   0.50000   0.07097   |    3.44604   5.96872   1.67715    |
 | Nb  13   0.25000   0.50000   0.07097   |    0.00000   5.96872   1.67715    |
 | Nb  14   0.25000   0.25000   0.07097   |    1.72302   2.98436   1.67715    |
 | Nb  15   0.00000   0.25000   0.07097   |   -1.72302   2.98436   1.67715    |
 | Nb  16   0.00000   0.50000   0.07097   |   -3.44604   5.96872   1.67715    |
 | Se   1   0.16667   0.08333   0.00000   |    1.72302   0.99479   0.00000    |
 | Se   2   0.16667   0.08333   0.14194   |    1.72302   0.99479   3.35430    |
 | Se   3   0.41667   0.08333   0.00000   |    5.16906   0.99479   0.00000    |
 | Se   4   0.41667   0.08333   0.14194   |    5.16906   0.99479   3.35430    |
 | Se   5   0.66667   0.08333   0.00000   |    8.61511   0.99479   0.00000    |
 | Se   6   0.66667   0.08333   0.14194   |    8.61511   0.99479   3.35430    |
 | Se   7   0.91667   0.08333   0.00000   |   12.06115   0.99479   0.00000    |
 | Se   8   0.91667   0.08333   0.14194   |   12.06115   0.99479   3.35430    |
 | Se   9   0.91667   0.33333   0.00000   |   10.33813   3.97915   0.00000    |
 | Se  10   0.91667   0.33333   0.14194   |   10.33813   3.97915   3.35430    |
 | Se  11   0.91667   0.58333   0.00000   |    8.61511   6.96351   0.00000    |
 | Se  12   0.91667   0.58333   0.14194   |    8.61511   6.96351   3.35430    |
 | Se  13   0.91667   0.83333   0.00000   |    6.89209   9.94787   0.00000    |
 | Se  14   0.91667   0.83333   0.14194   |    6.89209   9.94787   3.35430    |
 | Se  15   0.66667   0.83333   0.00000   |    3.44604   9.94787   0.00000    |
 | Se  16   0.66667   0.83333   0.14194   |    3.44604   9.94787   3.35430    |
 | Se  17   0.41667   0.83333   0.00000   |    0.00000   9.94787   0.00000    |
 | Se  18   0.41667   0.83333   0.14194   |    0.00000   9.94787   3.35430    |
 | Se  19   0.16667   0.83333   0.00000   |   -3.44604   9.94787   0.00000    |
 | Se  20   0.16667   0.83333   0.14194   |   -3.44604   9.94787   3.35430    |
 | Se  21   0.66667   0.33333   0.00000   |    6.89209   3.97915   0.00000    |
 | Se  22   0.66667   0.33333   0.14194   |    6.89209   3.97915   3.35430    |
 | Se  23   0.66667   0.58333   0.00000   |    5.16906   6.96351   0.00000    |
 | Se  24   0.66667   0.58333   0.14194   |    5.16906   6.96351   3.35430    |
 | Se  25   0.41667   0.58333   0.00000   |    1.72302   6.96351   0.00000    |
 | Se  26   0.41667   0.58333   0.14194   |    1.72302   6.96351   3.35430    |
 | Se  27   0.41667   0.33333   0.00000   |    3.44604   3.97915   0.00000    |
 | Se  28   0.41667   0.33333   0.14194   |    3.44604   3.97915   3.35430    |
 | Se  29   0.16667   0.33333   0.00000   |    0.00000   3.97915   0.00000    |
 | Se  30   0.16667   0.33333   0.14194   |    0.00000   3.97915   3.35430    |
 | Se  31   0.16667   0.58333   0.00000   |   -1.72302   6.96351   0.00000    |
 | Se  32   0.16667   0.58333   0.14194   |   -1.72302   6.96351   3.35430    |
 *----------------------------------------------------------------------------*
                                -----------
                                PROJECTIONS
                                -----------
  
 +----------------------------------------------------------------------------+
 |     Frac. Coord.   l mr  r        z-axis               x-axis          Z/a |
 +----------------------------------------------------------------------------+
 |  0.00  0.00  0.07  2  1  1  0.000  0.000  1.000  1.000  0.000  0.000   1.0 |
 |  0.00  0.00  0.07  2  1  1  0.000  0.000  1.000  1.000  0.000  0.000   1.0 |
 |  0.00  0.00  0.07  2  2  1  0.000  0.000  1.000  1.000  0.000  0.000   1.0 |
 |  0.00  0.00  0.07  2  2  1  0.000  0.000  1.000  1.000  0.000  0.000   1.0 |
 |  0.00  0.00  0.07  2  3  1  0.000  0.000  1.000  1.000  0.000  0.000   1.0 |
 |  0.00  0.00  0.07  2  3  1  0.000  0.000  1.000  1.000  0.000  0.000   1.0 |
 |  0.00  0.00  0.07  2  4  1  0.000  0.000  1.000  1.000  0.000  0.000   1.0 |
 |  0.00  0.00  0.07  2  4  1  0.000  0.000  1.000  1.000  0.000  0.000   1.0 |
 |  0.00  0.00  0.07  2  5  1  0.000  0.000  1.000  1.000  0.000  0.000   1.0 |
 |  0.00  0.00  0.07  2  5  1  0.000  0.000  1.000  1.000  0.000  0.000   1.0 |
 |  0.25  0.00  0.07  2  1  1  0.000  0.000  1.000  1.000  0.000  0.000   1.0 |
 |  0.25  0.00  0.07  2  1  1  0.000  0.000  1.000  1.000  0.000  0.000   1.0 |
 |  0.25  0.00  0.07  2  2  1  0.000  0.000  1.000  1.000  0.000  0.000   1.0 |
 |  0.25  0.00  0.07  2  2  1  0.000  0.000  1.000  1.000  0.000  0.000   1.0 |
 |  0.25  0.00  0.07  2  3  1  0.000  0.000  1.000  1.000  0.000  0.000   1.0 |
 |  0.25  0.00  0.07  2  3  1  0.000  0.000  1.000  1.000  0.000  0.000   1.0 |
 |  0.25  0.00  0.07  2  4  1  0.000  0.000  1.000  1.000  0.000  0.000   1.0 |
 |  0.25  0.00  0.07  2  4  1  0.000  0.000  1.000  1.000  0.000  0.000   1.0 |
 |  0.25  0.00  0.07  2  5  1  0.000  0.000  1.000  1.000  0.000  0.000   1.0 |
 |  0.25  0.00  0.07  2  5  1  0.000  0.000  1.000  1.000  0.000  0.000   1.0 |
 |  0.50  0.00  0.07  2  1  1  0.000  0.000  1.000  1.000  0.000  0.000   1.0 |
 |  0.50  0.00  0.07  2  1  1  0.000  0.000  1.000  1.000  0.000  0.000   1.0 |
 |  0.50  0.00  0.07  2  2  1  0.000  0.000  1.000  1.000  0.000  0.000   1.0 |
 |  0.50  0.00  0.07  2  2  1  0.000  0.000  1.000  1.000  0.000  0.000   1.0 |
 |  0.50  0.00  0.07  2  3  1  0.000  0.000  1.000  1.000  0.000  0.000   1.0 |
 |  0.50  0.00  0.07  2  3  1  0.000  0.000  1.000  1.000  0.000  0.000   1.0 |
 |  0.50  0.00  0.07  2  4  1  0.000  0.000  1.000  1.000  0.000  0.000   1.0 |
 |  0.50  0.00  0.07  2  4  1  0.000  0.000  1.000  1.000  0.000  0.000   1.0 |
 |  0.50  0.00  0.07  2  5  1  0.000  0.000  1.000  1.000  0.000  0.000   1.0 |
 |  0.50  0.00  0.07  2  5  1  0.000  0.000  1.000  1.000  0.000  0.000   1.0 |
 |  0.75  0.00  0.07  2  1  1  0.000  0.000  1.000  1.000  0.000  0.000   1.0 |
 |  0.75  0.00  0.07  2  1  1  0.000  0.000  1.000  1.000  0.000  0.000   1.0 |
 |  0.75  0.00  0.07  2  2  1  0.000  0.000  1.000  1.000  0.000  0.000   1.0 |
 |  0.75  0.00  0.07  2  2  1  0.000  0.000  1.000  1.000  0.000  0.000   1.0 |
 |  0.75  0.00  0.07  2  3  1  0.000  0.000  1.000  1.000  0.000  0.000   1.0 |
 |  0.75  0.00  0.07  2  3  1  0.000  0.000  1.000  1.000  0.000  0.000   1.0 |
 |  0.75  0.00  0.07  2  4  1  0.000  0.000  1.000  1.000  0.000  0.000   1.0 |
 |  0.75  0.00  0.07  2  4  1  0.000  0.000  1.000  1.000  0.000  0.000   1.0 |
 |  0.75  0.00  0.07  2  5  1  0.000  0.000  1.000  1.000  0.000  0.000   1.0 |
 |  0.75  0.00  0.07  2  5  1  0.000  0.000  1.000  1.000  0.000  0.000   1.0 |
 |  0.75  0.25  0.07  2  1  1  0.000  0.000  1.000  1.000  0.000  0.000   1.0 |
 |  0.75  0.25  0.07  2  1  1  0.000  0.000  1.000  1.000  0.000  0.000   1.0 |
 |  0.75  0.25  0.07  2  2  1  0.000  0.000  1.000  1.000  0.000  0.000   1.0 |
 |  0.75  0.25  0.07  2  2  1  0.000  0.000  1.000  1.000  0.000  0.000   1.0 |
 |  0.75  0.25  0.07  2  3  1  0.000  0.000  1.000  1.000  0.000  0.000   1.0 |
 |  0.75  0.25  0.07  2  3  1  0.000  0.000  1.000  1.000  0.000  0.000   1.0 |
 |  0.75  0.25  0.07  2  4  1  0.000  0.000  1.000  1.000  0.000  0.000   1.0 |
 |  0.75  0.25  0.07  2  4  1  0.000  0.000  1.000  1.000  0.000  0.000   1.0 |
 |  0.75  0.25  0.07  2  5  1  0.000  0.000  1.000  1.000  0.000  0.000   1.0 |
 |  0.75  0.25  0.07  2  5  1  0.000  0.000  1.000  1.000  0.000  0.000   1.0 |
 |  0.75  0.50  0.07  2  1  1  0.000  0.000  1.000  1.000  0.000  0.000   1.0 |
 |  0.75  0.50  0.07  2  1  1  0.000  0.000  1.000  1.000  0.000  0.000   1.0 |
 |  0.75  0.50  0.07  2  2  1  0.000  0.000  1.000  1.000  0.000  0.000   1.0 |
 |  0.75  0.50  0.07  2  2  1  0.000  0.000  1.000  1.000  0.000  0.000   1.0 |
 |  0.75  0.50  0.07  2  3  1  0.000  0.000  1.000  1.000  0.000  0.000   1.0 |
 |  0.75  0.50  0.07  2  3  1  0.000  0.000  1.000  1.000  0.000  0.000   1.0 |
 |  0.75  0.50  0.07  2  4  1  0.000  0.000  1.000  1.000  0.000  0.000   1.0 |
 |  0.75  0.50  0.07  2  4  1  0.000  0.000  1.000  1.000  0.000  0.000   1.0 |
 |  0.75  0.50  0.07  2  5  1  0.000  0.000  1.000  1.000  0.000  0.000   1.0 |
 |  0.75  0.50  0.07  2  5  1  0.000  0.000  1.000  1.000  0.000  0.000   1.0 |
 |  0.75  0.75  0.07  2  1  1  0.000  0.000  1.000  1.000  0.000  0.000   1.0 |
 |  0.75  0.75  0.07  2  1  1  0.000  0.000  1.000  1.000  0.000  0.000   1.0 |
 |  0.75  0.75  0.07  2  2  1  0.000  0.000  1.000  1.000  0.000  0.000   1.0 |
 |  0.75  0.75  0.07  2  2  1  0.000  0.000  1.000  1.000  0.000  0.000   1.0 |
 |  0.75  0.75  0.07  2  3  1  0.000  0.000  1.000  1.000  0.000  0.000   1.0 |
 |  0.75  0.75  0.07  2  3  1  0.000  0.000  1.000  1.000  0.000  0.000   1.0 |
 |  0.75  0.75  0.07  2  4  1  0.000  0.000  1.000  1.000  0.000  0.000   1.0 |
 |  0.75  0.75  0.07  2  4  1  0.000  0.000  1.000  1.000  0.000  0.000   1.0 |
 |  0.75  0.75  0.07  2  5  1  0.000  0.000  1.000  1.000  0.000  0.000   1.0 |
 |  0.75  0.75  0.07  2  5  1  0.000  0.000  1.000  1.000  0.000  0.000   1.0 |
 |  0.50  0.75  0.07  2  1  1  0.000  0.000  1.000  1.000  0.000  0.000   1.0 |
 |  0.50  0.75  0.07  2  1  1  0.000  0.000  1.000  1.000  0.000  0.000   1.0 |
 |  0.50  0.75  0.07  2  2  1  0.000  0.000  1.000  1.000  0.000  0.000   1.0 |
 |  0.50  0.75  0.07  2  2  1  0.000  0.000  1.000  1.000  0.000  0.000   1.0 |
 |  0.50  0.75  0.07  2  3  1  0.000  0.000  1.000  1.000  0.000  0.000   1.0 |
 |  0.50  0.75  0.07  2  3  1  0.000  0.000  1.000  1.000  0.000  0.000   1.0 |
 |  0.50  0.75  0.07  2  4  1  0.000  0.000  1.000  1.000  0.000  0.000   1.0 |
 |  0.50  0.75  0.07  2  4  1  0.000  0.000  1.000  1.000  0.000  0.000   1.0 |
 |  0.50  0.75  0.07  2  5  1  0.000  0.000  1.000  1.000  0.000  0.000   1.0 |
 |  0.50  0.75  0.07  2  5  1  0.000  0.000  1.000  1.000  0.000  0.000   1.0 |
 |  0.25  0.75  0.07  2  1  1  0.000  0.000  1.000  1.000  0.000  0.000   1.0 |
 |  0.25  0.75  0.07  2  1  1  0.000  0.000  1.000  1.000  0.000  0.000   1.0 |
 |  0.25  0.75  0.07  2  2  1  0.000  0.000  1.000  1.000  0.000  0.000   1.0 |
 |  0.25  0.75  0.07  2  2  1  0.000  0.000  1.000  1.000  0.000  0.000   1.0 |
 |  0.25  0.75  0.07  2  3  1  0.000  0.000  1.000  1.000  0.000  0.000   1.0 |
 |  0.25  0.75  0.07  2  3  1  0.000  0.000  1.000  1.000  0.000  0.000   1.0 |
 |  0.25  0.75  0.07  2  4  1  0.000  0.000  1.000  1.000  0.000  0.000   1.0 |
 |  0.25  0.75  0.07  2  4  1  0.000  0.000  1.000  1.000  0.000  0.000   1.0 |
 |  0.25  0.75  0.07  2  5  1  0.000  0.000  1.000  1.000  0.000  0.000   1.0 |
 |  0.25  0.75  0.07  2  5  1  0.000  0.000  1.000  1.000  0.000  0.000   1.0 |
 |  0.00  0.75  0.07  2  1  1  0.000  0.000  1.000  1.000  0.000  0.000   1.0 |
 |  0.00  0.75  0.07  2  1  1  0.000  0.000  1.000  1.000  0.000  0.000   1.0 |
 |  0.00  0.75  0.07  2  2  1  0.000  0.000  1.000  1.000  0.000  0.000   1.0 |
 |  0.00  0.75  0.07  2  2  1  0.000  0.000  1.000  1.000  0.000  0.000   1.0 |
 |  0.00  0.75  0.07  2  3  1  0.000  0.000  1.000  1.000  0.000  0.000   1.0 |
 |  0.00  0.75  0.07  2  3  1  0.000  0.000  1.000  1.000  0.000  0.000   1.0 |
 |  0.00  0.75  0.07  2  4  1  0.000  0.000  1.000  1.000  0.000  0.000   1.0 |
 |  0.00  0.75  0.07  2  4  1  0.000  0.000  1.000  1.000  0.000  0.000   1.0 |
 |  0.00  0.75  0.07  2  5  1  0.000  0.000  1.000  1.000  0.000  0.000   1.0 |
 |  0.00  0.75  0.07  2  5  1  0.000  0.000  1.000  1.000  0.000  0.000   1.0 |
 |  0.50  0.25  0.07  2  1  1  0.000  0.000  1.000  1.000  0.000  0.000   1.0 |
 |  0.50  0.25  0.07  2  1  1  0.000  0.000  1.000  1.000  0.000  0.000   1.0 |
 |  0.50  0.25  0.07  2  2  1  0.000  0.000  1.000  1.000  0.000  0.000   1.0 |
 |  0.50  0.25  0.07  2  2  1  0.000  0.000  1.000  1.000  0.000  0.000   1.0 |
 |  0.50  0.25  0.07  2  3  1  0.000  0.000  1.000  1.000  0.000  0.000   1.0 |
 |  0.50  0.25  0.07  2  3  1  0.000  0.000  1.000  1.000  0.000  0.000   1.0 |
 |  0.50  0.25  0.07  2  4  1  0.000  0.000  1.000  1.000  0.000  0.000   1.0 |
 |  0.50  0.25  0.07  2  4  1  0.000  0.000  1.000  1.000  0.000  0.000   1.0 |
 |  0.50  0.25  0.07  2  5  1  0.000  0.000  1.000  1.000  0.000  0.000   1.0 |
 |  0.50  0.25  0.07  2  5  1  0.000  0.000  1.000  1.000  0.000  0.000   1.0 |
 |  0.50  0.50  0.07  2  1  1  0.000  0.000  1.000  1.000  0.000  0.000   1.0 |
 |  0.50  0.50  0.07  2  1  1  0.000  0.000  1.000  1.000  0.000  0.000   1.0 |
 |  0.50  0.50  0.07  2  2  1  0.000  0.000  1.000  1.000  0.000  0.000   1.0 |
 |  0.50  0.50  0.07  2  2  1  0.000  0.000  1.000  1.000  0.000  0.000   1.0 |
 |  0.50  0.50  0.07  2  3  1  0.000  0.000  1.000  1.000  0.000  0.000   1.0 |
 |  0.50  0.50  0.07  2  3  1  0.000  0.000  1.000  1.000  0.000  0.000   1.0 |
 |  0.50  0.50  0.07  2  4  1  0.000  0.000  1.000  1.000  0.000  0.000   1.0 |
 |  0.50  0.50  0.07  2  4  1  0.000  0.000  1.000  1.000  0.000  0.000   1.0 |
 |  0.50  0.50  0.07  2  5  1  0.000  0.000  1.000  1.000  0.000  0.000   1.0 |
 |  0.50  0.50  0.07  2  5  1  0.000  0.000  1.000  1.000  0.000  0.000   1.0 |
 |  0.25  0.50  0.07  2  1  1  0.000  0.000  1.000  1.000  0.000  0.000   1.0 |
 |  0.25  0.50  0.07  2  1  1  0.000  0.000  1.000  1.000  0.000  0.000   1.0 |
 |  0.25  0.50  0.07  2  2  1  0.000  0.000  1.000  1.000  0.000  0.000   1.0 |
 |  0.25  0.50  0.07  2  2  1  0.000  0.000  1.000  1.000  0.000  0.000   1.0 |
 |  0.25  0.50  0.07  2  3  1  0.000  0.000  1.000  1.000  0.000  0.000   1.0 |
 |  0.25  0.50  0.07  2  3  1  0.000  0.000  1.000  1.000  0.000  0.000   1.0 |
 |  0.25  0.50  0.07  2  4  1  0.000  0.000  1.000  1.000  0.000  0.000   1.0 |
 |  0.25  0.50  0.07  2  4  1  0.000  0.000  1.000  1.000  0.000  0.000   1.0 |
 |  0.25  0.50  0.07  2  5  1  0.000  0.000  1.000  1.000  0.000  0.000   1.0 |
 |  0.25  0.50  0.07  2  5  1  0.000  0.000  1.000  1.000  0.000  0.000   1.0 |
 |  0.25  0.25  0.07  2  1  1  0.000  0.000  1.000  1.000  0.000  0.000   1.0 |
 |  0.25  0.25  0.07  2  1  1  0.000  0.000  1.000  1.000  0.000  0.000   1.0 |
 |  0.25  0.25  0.07  2  2  1  0.000  0.000  1.000  1.000  0.000  0.000   1.0 |
 |  0.25  0.25  0.07  2  2  1  0.000  0.000  1.000  1.000  0.000  0.000   1.0 |
 |  0.25  0.25  0.07  2  3  1  0.000  0.000  1.000  1.000  0.000  0.000   1.0 |
 |  0.25  0.25  0.07  2  3  1  0.000  0.000  1.000  1.000  0.000  0.000   1.0 |
 |  0.25  0.25  0.07  2  4  1  0.000  0.000  1.000  1.000  0.000  0.000   1.0 |
 |  0.25  0.25  0.07  2  4  1  0.000  0.000  1.000  1.000  0.000  0.000   1.0 |
 |  0.25  0.25  0.07  2  5  1  0.000  0.000  1.000  1.000  0.000  0.000   1.0 |
 |  0.25  0.25  0.07  2  5  1  0.000  0.000  1.000  1.000  0.000  0.000   1.0 |
 |  0.00  0.25  0.07  2  1  1  0.000  0.000  1.000  1.000  0.000  0.000   1.0 |
 |  0.00  0.25  0.07  2  1  1  0.000  0.000  1.000  1.000  0.000  0.000   1.0 |
 |  0.00  0.25  0.07  2  2  1  0.000  0.000  1.000  1.000  0.000  0.000   1.0 |
 |  0.00  0.25  0.07  2  2  1  0.000  0.000  1.000  1.000  0.000  0.000   1.0 |
 |  0.00  0.25  0.07  2  3  1  0.000  0.000  1.000  1.000  0.000  0.000   1.0 |
 |  0.00  0.25  0.07  2  3  1  0.000  0.000  1.000  1.000  0.000  0.000   1.0 |
 |  0.00  0.25  0.07  2  4  1  0.000  0.000  1.000  1.000  0.000  0.000   1.0 |
 |  0.00  0.25  0.07  2  4  1  0.000  0.000  1.000  1.000  0.000  0.000   1.0 |
 |  0.00  0.25  0.07  2  5  1  0.000  0.000  1.000  1.000  0.000  0.000   1.0 |
 |  0.00  0.25  0.07  2  5  1  0.000  0.000  1.000  1.000  0.000  0.000   1.0 |
 |  0.00  0.50  0.07  2  1  1  0.000  0.000  1.000  1.000  0.000  0.000   1.0 |
 |  0.00  0.50  0.07  2  1  1  0.000  0.000  1.000  1.000  0.000  0.000   1.0 |
 |  0.00  0.50  0.07  2  2  1  0.000  0.000  1.000  1.000  0.000  0.000   1.0 |
 |  0.00  0.50  0.07  2  2  1  0.000  0.000  1.000  1.000  0.000  0.000   1.0 |
 |  0.00  0.50  0.07  2  3  1  0.000  0.000  1.000  1.000  0.000  0.000   1.0 |
 |  0.00  0.50  0.07  2  3  1  0.000  0.000  1.000  1.000  0.000  0.000   1.0 |
 |  0.00  0.50  0.07  2  4  1  0.000  0.000  1.000  1.000  0.000  0.000   1.0 |
 |  0.00  0.50  0.07  2  4  1  0.000  0.000  1.000  1.000  0.000  0.000   1.0 |
 |  0.00  0.50  0.07  2  5  1  0.000  0.000  1.000  1.000  0.000  0.000   1.0 |
 |  0.00  0.50  0.07  2  5  1  0.000  0.000  1.000  1.000  0.000  0.000   1.0 |
 |  0.17  0.08  0.00  1  1  1  0.000  0.000  1.000  1.000  0.000  0.000   1.0 |
 |  0.17  0.08  0.00  1  1  1  0.000  0.000  1.000  1.000  0.000  0.000   1.0 |
 |  0.17  0.08  0.00  1  2  1  0.000  0.000  1.000  1.000  0.000  0.000   1.0 |
 |  0.17  0.08  0.00  1  2  1  0.000  0.000  1.000  1.000  0.000  0.000   1.0 |
 |  0.17  0.08  0.00  1  3  1  0.000  0.000  1.000  1.000  0.000  0.000   1.0 |
 |  0.17  0.08  0.00  1  3  1  0.000  0.000  1.000  1.000  0.000  0.000   1.0 |
 |  0.17  0.08  0.14  1  1  1  0.000  0.000  1.000  1.000  0.000  0.000   1.0 |
 |  0.17  0.08  0.14  1  1  1  0.000  0.000  1.000  1.000  0.000  0.000   1.0 |
 |  0.17  0.08  0.14  1  2  1  0.000  0.000  1.000  1.000  0.000  0.000   1.0 |
 |  0.17  0.08  0.14  1  2  1  0.000  0.000  1.000  1.000  0.000  0.000   1.0 |
 |  0.17  0.08  0.14  1  3  1  0.000  0.000  1.000  1.000  0.000  0.000   1.0 |
 |  0.17  0.08  0.14  1  3  1  0.000  0.000  1.000  1.000  0.000  0.000   1.0 |
 |  0.42  0.08  0.00  1  1  1  0.000  0.000  1.000  1.000  0.000  0.000   1.0 |
 |  0.42  0.08  0.00  1  1  1  0.000  0.000  1.000  1.000  0.000  0.000   1.0 |
 |  0.42  0.08  0.00  1  2  1  0.000  0.000  1.000  1.000  0.000  0.000   1.0 |
 |  0.42  0.08  0.00  1  2  1  0.000  0.000  1.000  1.000  0.000  0.000   1.0 |
 |  0.42  0.08  0.00  1  3  1  0.000  0.000  1.000  1.000  0.000  0.000   1.0 |
 |  0.42  0.08  0.00  1  3  1  0.000  0.000  1.000  1.000  0.000  0.000   1.0 |
 |  0.42  0.08  0.14  1  1  1  0.000  0.000  1.000  1.000  0.000  0.000   1.0 |
 |  0.42  0.08  0.14  1  1  1  0.000  0.000  1.000  1.000  0.000  0.000   1.0 |
 |  0.42  0.08  0.14  1  2  1  0.000  0.000  1.000  1.000  0.000  0.000   1.0 |
 |  0.42  0.08  0.14  1  2  1  0.000  0.000  1.000  1.000  0.000  0.000   1.0 |
 |  0.42  0.08  0.14  1  3  1  0.000  0.000  1.000  1.000  0.000  0.000   1.0 |
 |  0.42  0.08  0.14  1  3  1  0.000  0.000  1.000  1.000  0.000  0.000   1.0 |
 |  0.67  0.08  0.00  1  1  1  0.000  0.000  1.000  1.000  0.000  0.000   1.0 |
 |  0.67  0.08  0.00  1  1  1  0.000  0.000  1.000  1.000  0.000  0.000   1.0 |
 |  0.67  0.08  0.00  1  2  1  0.000  0.000  1.000  1.000  0.000  0.000   1.0 |
 |  0.67  0.08  0.00  1  2  1  0.000  0.000  1.000  1.000  0.000  0.000   1.0 |
 |  0.67  0.08  0.00  1  3  1  0.000  0.000  1.000  1.000  0.000  0.000   1.0 |
 |  0.67  0.08  0.00  1  3  1  0.000  0.000  1.000  1.000  0.000  0.000   1.0 |
 |  0.67  0.08  0.14  1  1  1  0.000  0.000  1.000  1.000  0.000  0.000   1.0 |
 |  0.67  0.08  0.14  1  1  1  0.000  0.000  1.000  1.000  0.000  0.000   1.0 |
 |  0.67  0.08  0.14  1  2  1  0.000  0.000  1.000  1.000  0.000  0.000   1.0 |
 |  0.67  0.08  0.14  1  2  1  0.000  0.000  1.000  1.000  0.000  0.000   1.0 |
 |  0.67  0.08  0.14  1  3  1  0.000  0.000  1.000  1.000  0.000  0.000   1.0 |
 |  0.67  0.08  0.14  1  3  1  0.000  0.000  1.000  1.000  0.000  0.000   1.0 |
 |  0.92  0.08  0.00  1  1  1  0.000  0.000  1.000  1.000  0.000  0.000   1.0 |
 |  0.92  0.08  0.00  1  1  1  0.000  0.000  1.000  1.000  0.000  0.000   1.0 |
 |  0.92  0.08  0.00  1  2  1  0.000  0.000  1.000  1.000  0.000  0.000   1.0 |
 |  0.92  0.08  0.00  1  2  1  0.000  0.000  1.000  1.000  0.000  0.000   1.0 |
 |  0.92  0.08  0.00  1  3  1  0.000  0.000  1.000  1.000  0.000  0.000   1.0 |
 |  0.92  0.08  0.00  1  3  1  0.000  0.000  1.000  1.000  0.000  0.000   1.0 |
 |  0.92  0.08  0.14  1  1  1  0.000  0.000  1.000  1.000  0.000  0.000   1.0 |
 |  0.92  0.08  0.14  1  1  1  0.000  0.000  1.000  1.000  0.000  0.000   1.0 |
 |  0.92  0.08  0.14  1  2  1  0.000  0.000  1.000  1.000  0.000  0.000   1.0 |
 |  0.92  0.08  0.14  1  2  1  0.000  0.000  1.000  1.000  0.000  0.000   1.0 |
 |  0.92  0.08  0.14  1  3  1  0.000  0.000  1.000  1.000  0.000  0.000   1.0 |
 |  0.92  0.08  0.14  1  3  1  0.000  0.000  1.000  1.000  0.000  0.000   1.0 |
 |  0.92  0.33  0.00  1  1  1  0.000  0.000  1.000  1.000  0.000  0.000   1.0 |
 |  0.92  0.33  0.00  1  1  1  0.000  0.000  1.000  1.000  0.000  0.000   1.0 |
 |  0.92  0.33  0.00  1  2  1  0.000  0.000  1.000  1.000  0.000  0.000   1.0 |
 |  0.92  0.33  0.00  1  2  1  0.000  0.000  1.000  1.000  0.000  0.000   1.0 |
 |  0.92  0.33  0.00  1  3  1  0.000  0.000  1.000  1.000  0.000  0.000   1.0 |
 |  0.92  0.33  0.00  1  3  1  0.000  0.000  1.000  1.000  0.000  0.000   1.0 |
 |  0.92  0.33  0.14  1  1  1  0.000  0.000  1.000  1.000  0.000  0.000   1.0 |
 |  0.92  0.33  0.14  1  1  1  0.000  0.000  1.000  1.000  0.000  0.000   1.0 |
 |  0.92  0.33  0.14  1  2  1  0.000  0.000  1.000  1.000  0.000  0.000   1.0 |
 |  0.92  0.33  0.14  1  2  1  0.000  0.000  1.000  1.000  0.000  0.000   1.0 |
 |  0.92  0.33  0.14  1  3  1  0.000  0.000  1.000  1.000  0.000  0.000   1.0 |
 |  0.92  0.33  0.14  1  3  1  0.000  0.000  1.000  1.000  0.000  0.000   1.0 |
 |  0.92  0.58  0.00  1  1  1  0.000  0.000  1.000  1.000  0.000  0.000   1.0 |
 |  0.92  0.58  0.00  1  1  1  0.000  0.000  1.000  1.000  0.000  0.000   1.0 |
 |  0.92  0.58  0.00  1  2  1  0.000  0.000  1.000  1.000  0.000  0.000   1.0 |
 |  0.92  0.58  0.00  1  2  1  0.000  0.000  1.000  1.000  0.000  0.000   1.0 |
 |  0.92  0.58  0.00  1  3  1  0.000  0.000  1.000  1.000  0.000  0.000   1.0 |
 |  0.92  0.58  0.00  1  3  1  0.000  0.000  1.000  1.000  0.000  0.000   1.0 |
 |  0.92  0.58  0.14  1  1  1  0.000  0.000  1.000  1.000  0.000  0.000   1.0 |
 |  0.92  0.58  0.14  1  1  1  0.000  0.000  1.000  1.000  0.000  0.000   1.0 |
 |  0.92  0.58  0.14  1  2  1  0.000  0.000  1.000  1.000  0.000  0.000   1.0 |
 |  0.92  0.58  0.14  1  2  1  0.000  0.000  1.000  1.000  0.000  0.000   1.0 |
 |  0.92  0.58  0.14  1  3  1  0.000  0.000  1.000  1.000  0.000  0.000   1.0 |
 |  0.92  0.58  0.14  1  3  1  0.000  0.000  1.000  1.000  0.000  0.000   1.0 |
 |  0.92  0.83  0.00  1  1  1  0.000  0.000  1.000  1.000  0.000  0.000   1.0 |
 |  0.92  0.83  0.00  1  1  1  0.000  0.000  1.000  1.000  0.000  0.000   1.0 |
 |  0.92  0.83  0.00  1  2  1  0.000  0.000  1.000  1.000  0.000  0.000   1.0 |
 |  0.92  0.83  0.00  1  2  1  0.000  0.000  1.000  1.000  0.000  0.000   1.0 |
 |  0.92  0.83  0.00  1  3  1  0.000  0.000  1.000  1.000  0.000  0.000   1.0 |
 |  0.92  0.83  0.00  1  3  1  0.000  0.000  1.000  1.000  0.000  0.000   1.0 |
 |  0.92  0.83  0.14  1  1  1  0.000  0.000  1.000  1.000  0.000  0.000   1.0 |
 |  0.92  0.83  0.14  1  1  1  0.000  0.000  1.000  1.000  0.000  0.000   1.0 |
 |  0.92  0.83  0.14  1  2  1  0.000  0.000  1.000  1.000  0.000  0.000   1.0 |
 |  0.92  0.83  0.14  1  2  1  0.000  0.000  1.000  1.000  0.000  0.000   1.0 |
 |  0.92  0.83  0.14  1  3  1  0.000  0.000  1.000  1.000  0.000  0.000   1.0 |
 |  0.92  0.83  0.14  1  3  1  0.000  0.000  1.000  1.000  0.000  0.000   1.0 |
 |  0.67  0.83  0.00  1  1  1  0.000  0.000  1.000  1.000  0.000  0.000   1.0 |
 |  0.67  0.83  0.00  1  1  1  0.000  0.000  1.000  1.000  0.000  0.000   1.0 |
 |  0.67  0.83  0.00  1  2  1  0.000  0.000  1.000  1.000  0.000  0.000   1.0 |
 |  0.67  0.83  0.00  1  2  1  0.000  0.000  1.000  1.000  0.000  0.000   1.0 |
 |  0.67  0.83  0.00  1  3  1  0.000  0.000  1.000  1.000  0.000  0.000   1.0 |
 |  0.67  0.83  0.00  1  3  1  0.000  0.000  1.000  1.000  0.000  0.000   1.0 |
 |  0.67  0.83  0.14  1  1  1  0.000  0.000  1.000  1.000  0.000  0.000   1.0 |
 |  0.67  0.83  0.14  1  1  1  0.000  0.000  1.000  1.000  0.000  0.000   1.0 |
 |  0.67  0.83  0.14  1  2  1  0.000  0.000  1.000  1.000  0.000  0.000   1.0 |
 |  0.67  0.83  0.14  1  2  1  0.000  0.000  1.000  1.000  0.000  0.000   1.0 |
 |  0.67  0.83  0.14  1  3  1  0.000  0.000  1.000  1.000  0.000  0.000   1.0 |
 |  0.67  0.83  0.14  1  3  1  0.000  0.000  1.000  1.000  0.000  0.000   1.0 |
 |  0.42  0.83  0.00  1  1  1  0.000  0.000  1.000  1.000  0.000  0.000   1.0 |
 |  0.42  0.83  0.00  1  1  1  0.000  0.000  1.000  1.000  0.000  0.000   1.0 |
 |  0.42  0.83  0.00  1  2  1  0.000  0.000  1.000  1.000  0.000  0.000   1.0 |
 |  0.42  0.83  0.00  1  2  1  0.000  0.000  1.000  1.000  0.000  0.000   1.0 |
 |  0.42  0.83  0.00  1  3  1  0.000  0.000  1.000  1.000  0.000  0.000   1.0 |
 |  0.42  0.83  0.00  1  3  1  0.000  0.000  1.000  1.000  0.000  0.000   1.0 |
 |  0.42  0.83  0.14  1  1  1  0.000  0.000  1.000  1.000  0.000  0.000   1.0 |
 |  0.42  0.83  0.14  1  1  1  0.000  0.000  1.000  1.000  0.000  0.000   1.0 |
 |  0.42  0.83  0.14  1  2  1  0.000  0.000  1.000  1.000  0.000  0.000   1.0 |
 |  0.42  0.83  0.14  1  2  1  0.000  0.000  1.000  1.000  0.000  0.000   1.0 |
 |  0.42  0.83  0.14  1  3  1  0.000  0.000  1.000  1.000  0.000  0.000   1.0 |
 |  0.42  0.83  0.14  1  3  1  0.000  0.000  1.000  1.000  0.000  0.000   1.0 |
 |  0.17  0.83  0.00  1  1  1  0.000  0.000  1.000  1.000  0.000  0.000   1.0 |
 |  0.17  0.83  0.00  1  1  1  0.000  0.000  1.000  1.000  0.000  0.000   1.0 |
 |  0.17  0.83  0.00  1  2  1  0.000  0.000  1.000  1.000  0.000  0.000   1.0 |
 |  0.17  0.83  0.00  1  2  1  0.000  0.000  1.000  1.000  0.000  0.000   1.0 |
 |  0.17  0.83  0.00  1  3  1  0.000  0.000  1.000  1.000  0.000  0.000   1.0 |
 |  0.17  0.83  0.00  1  3  1  0.000  0.000  1.000  1.000  0.000  0.000   1.0 |
 |  0.17  0.83  0.14  1  1  1  0.000  0.000  1.000  1.000  0.000  0.000   1.0 |
 |  0.17  0.83  0.14  1  1  1  0.000  0.000  1.000  1.000  0.000  0.000   1.0 |
 |  0.17  0.83  0.14  1  2  1  0.000  0.000  1.000  1.000  0.000  0.000   1.0 |
 |  0.17  0.83  0.14  1  2  1  0.000  0.000  1.000  1.000  0.000  0.000   1.0 |
 |  0.17  0.83  0.14  1  3  1  0.000  0.000  1.000  1.000  0.000  0.000   1.0 |
 |  0.17  0.83  0.14  1  3  1  0.000  0.000  1.000  1.000  0.000  0.000   1.0 |
 |  0.67  0.33  0.00  1  1  1  0.000  0.000  1.000  1.000  0.000  0.000   1.0 |
 |  0.67  0.33  0.00  1  1  1  0.000  0.000  1.000  1.000  0.000  0.000   1.0 |
 |  0.67  0.33  0.00  1  2  1  0.000  0.000  1.000  1.000  0.000  0.000   1.0 |
 |  0.67  0.33  0.00  1  2  1  0.000  0.000  1.000  1.000  0.000  0.000   1.0 |
 |  0.67  0.33  0.00  1  3  1  0.000  0.000  1.000  1.000  0.000  0.000   1.0 |
 |  0.67  0.33  0.00  1  3  1  0.000  0.000  1.000  1.000  0.000  0.000   1.0 |
 |  0.67  0.33  0.14  1  1  1  0.000  0.000  1.000  1.000  0.000  0.000   1.0 |
 |  0.67  0.33  0.14  1  1  1  0.000  0.000  1.000  1.000  0.000  0.000   1.0 |
 |  0.67  0.33  0.14  1  2  1  0.000  0.000  1.000  1.000  0.000  0.000   1.0 |
 |  0.67  0.33  0.14  1  2  1  0.000  0.000  1.000  1.000  0.000  0.000   1.0 |
 |  0.67  0.33  0.14  1  3  1  0.000  0.000  1.000  1.000  0.000  0.000   1.0 |
 |  0.67  0.33  0.14  1  3  1  0.000  0.000  1.000  1.000  0.000  0.000   1.0 |
 |  0.67  0.58  0.00  1  1  1  0.000  0.000  1.000  1.000  0.000  0.000   1.0 |
 |  0.67  0.58  0.00  1  1  1  0.000  0.000  1.000  1.000  0.000  0.000   1.0 |
 |  0.67  0.58  0.00  1  2  1  0.000  0.000  1.000  1.000  0.000  0.000   1.0 |
 |  0.67  0.58  0.00  1  2  1  0.000  0.000  1.000  1.000  0.000  0.000   1.0 |
 |  0.67  0.58  0.00  1  3  1  0.000  0.000  1.000  1.000  0.000  0.000   1.0 |
 |  0.67  0.58  0.00  1  3  1  0.000  0.000  1.000  1.000  0.000  0.000   1.0 |
 |  0.67  0.58  0.14  1  1  1  0.000  0.000  1.000  1.000  0.000  0.000   1.0 |
 |  0.67  0.58  0.14  1  1  1  0.000  0.000  1.000  1.000  0.000  0.000   1.0 |
 |  0.67  0.58  0.14  1  2  1  0.000  0.000  1.000  1.000  0.000  0.000   1.0 |
 |  0.67  0.58  0.14  1  2  1  0.000  0.000  1.000  1.000  0.000  0.000   1.0 |
 |  0.67  0.58  0.14  1  3  1  0.000  0.000  1.000  1.000  0.000  0.000   1.0 |
 |  0.67  0.58  0.14  1  3  1  0.000  0.000  1.000  1.000  0.000  0.000   1.0 |
 |  0.42  0.58  0.00  1  1  1  0.000  0.000  1.000  1.000  0.000  0.000   1.0 |
 |  0.42  0.58  0.00  1  1  1  0.000  0.000  1.000  1.000  0.000  0.000   1.0 |
 |  0.42  0.58  0.00  1  2  1  0.000  0.000  1.000  1.000  0.000  0.000   1.0 |
 |  0.42  0.58  0.00  1  2  1  0.000  0.000  1.000  1.000  0.000  0.000   1.0 |
 |  0.42  0.58  0.00  1  3  1  0.000  0.000  1.000  1.000  0.000  0.000   1.0 |
 |  0.42  0.58  0.00  1  3  1  0.000  0.000  1.000  1.000  0.000  0.000   1.0 |
 |  0.42  0.58  0.14  1  1  1  0.000  0.000  1.000  1.000  0.000  0.000   1.0 |
 |  0.42  0.58  0.14  1  1  1  0.000  0.000  1.000  1.000  0.000  0.000   1.0 |
 |  0.42  0.58  0.14  1  2  1  0.000  0.000  1.000  1.000  0.000  0.000   1.0 |
 |  0.42  0.58  0.14  1  2  1  0.000  0.000  1.000  1.000  0.000  0.000   1.0 |
 |  0.42  0.58  0.14  1  3  1  0.000  0.000  1.000  1.000  0.000  0.000   1.0 |
 |  0.42  0.58  0.14  1  3  1  0.000  0.000  1.000  1.000  0.000  0.000   1.0 |
 |  0.42  0.33  0.00  1  1  1  0.000  0.000  1.000  1.000  0.000  0.000   1.0 |
 |  0.42  0.33  0.00  1  1  1  0.000  0.000  1.000  1.000  0.000  0.000   1.0 |
 |  0.42  0.33  0.00  1  2  1  0.000  0.000  1.000  1.000  0.000  0.000   1.0 |
 |  0.42  0.33  0.00  1  2  1  0.000  0.000  1.000  1.000  0.000  0.000   1.0 |
 |  0.42  0.33  0.00  1  3  1  0.000  0.000  1.000  1.000  0.000  0.000   1.0 |
 |  0.42  0.33  0.00  1  3  1  0.000  0.000  1.000  1.000  0.000  0.000   1.0 |
 |  0.42  0.33  0.14  1  1  1  0.000  0.000  1.000  1.000  0.000  0.000   1.0 |
 |  0.42  0.33  0.14  1  1  1  0.000  0.000  1.000  1.000  0.000  0.000   1.0 |
 |  0.42  0.33  0.14  1  2  1  0.000  0.000  1.000  1.000  0.000  0.000   1.0 |
 |  0.42  0.33  0.14  1  2  1  0.000  0.000  1.000  1.000  0.000  0.000   1.0 |
 |  0.42  0.33  0.14  1  3  1  0.000  0.000  1.000  1.000  0.000  0.000   1.0 |
 |  0.42  0.33  0.14  1  3  1  0.000  0.000  1.000  1.000  0.000  0.000   1.0 |
 |  0.17  0.33  0.00  1  1  1  0.000  0.000  1.000  1.000  0.000  0.000   1.0 |
 |  0.17  0.33  0.00  1  1  1  0.000  0.000  1.000  1.000  0.000  0.000   1.0 |
 |  0.17  0.33  0.00  1  2  1  0.000  0.000  1.000  1.000  0.000  0.000   1.0 |
 |  0.17  0.33  0.00  1  2  1  0.000  0.000  1.000  1.000  0.000  0.000   1.0 |
 |  0.17  0.33  0.00  1  3  1  0.000  0.000  1.000  1.000  0.000  0.000   1.0 |
 |  0.17  0.33  0.00  1  3  1  0.000  0.000  1.000  1.000  0.000  0.000   1.0 |
 |  0.17  0.33  0.14  1  1  1  0.000  0.000  1.000  1.000  0.000  0.000   1.0 |
 |  0.17  0.33  0.14  1  1  1  0.000  0.000  1.000  1.000  0.000  0.000   1.0 |
 |  0.17  0.33  0.14  1  2  1  0.000  0.000  1.000  1.000  0.000  0.000   1.0 |
 |  0.17  0.33  0.14  1  2  1  0.000  0.000  1.000  1.000  0.000  0.000   1.0 |
 |  0.17  0.33  0.14  1  3  1  0.000  0.000  1.000  1.000  0.000  0.000   1.0 |
 |  0.17  0.33  0.14  1  3  1  0.000  0.000  1.000  1.000  0.000  0.000   1.0 |
 |  0.17  0.58  0.00  1  1  1  0.000  0.000  1.000  1.000  0.000  0.000   1.0 |
 |  0.17  0.58  0.00  1  1  1  0.000  0.000  1.000  1.000  0.000  0.000   1.0 |
 |  0.17  0.58  0.00  1  2  1  0.000  0.000  1.000  1.000  0.000  0.000   1.0 |
 |  0.17  0.58  0.00  1  2  1  0.000  0.000  1.000  1.000  0.000  0.000   1.0 |
 |  0.17  0.58  0.00  1  3  1  0.000  0.000  1.000  1.000  0.000  0.000   1.0 |
 |  0.17  0.58  0.00  1  3  1  0.000  0.000  1.000  1.000  0.000  0.000   1.0 |
 |  0.17  0.58  0.14  1  1  1  0.000  0.000  1.000  1.000  0.000  0.000   1.0 |
 |  0.17  0.58  0.14  1  1  1  0.000  0.000  1.000  1.000  0.000  0.000   1.0 |
 |  0.17  0.58  0.14  1  2  1  0.000  0.000  1.000  1.000  0.000  0.000   1.0 |
 |  0.17  0.58  0.14  1  2  1  0.000  0.000  1.000  1.000  0.000  0.000   1.0 |
 |  0.17  0.58  0.14  1  3  1  0.000  0.000  1.000  1.000  0.000  0.000   1.0 |
 |  0.17  0.58  0.14  1  3  1  0.000  0.000  1.000  1.000  0.000  0.000   1.0 |
 +----------------------------------------------------------------------------+
  
                                ------------
                                K-POINT GRID
                                ------------
  
             Grid size =  3 x  3 x  1      Total points =    9
  
 *----------------------------------------------------------------------------*
 | k-point      Fractional Coordinate        Cartesian Coordinate (Ang^-1)    |
 +----------------------------------------------------------------------------+
 |     1    0.00000   0.00000   0.00000   |    0.00000   0.00000   0.00000    |
 |     2    0.00000   0.33333   0.00000   |    0.00000   0.17545   0.00000    |
 |     3    0.00000   0.66667   0.00000   |    0.00000   0.35090   0.00000    |
 |     4    0.33333   0.00000   0.00000   |    0.15194   0.08772   0.00000    |
 |     5    0.33333   0.33333   0.00000   |    0.15194   0.26317   0.00000    |
 |     6    0.33333   0.66667   0.00000   |    0.15194   0.43862   0.00000    |
 |     7    0.66667   0.00000   0.00000   |    0.30388   0.17545   0.00000    |
 |     8    0.66667   0.33333   0.00000   |    0.30388   0.35090   0.00000    |
 |     9    0.66667   0.66667   0.00000   |    0.30388   0.52634   0.00000    |
 *----------------------------------------------------------------------------*
  
  
 *---------------------------------- MAIN ------------------------------------*
 |  Number of Wannier Functions               :               352             |
 |  Number of Objective Wannier Functions     :               352             |
 |  Number of input Bloch states              :               600             |
 |  Output verbosity (1=low, 5=high)          :                 3             |
 |  Timing Level (1=low, 5=high)              :                 1             |
 |  Optimisation (0=memory, 3=speed)          :                 3             |
 |  Length Unit                               :               Ang             |
 |  Post-processing setup (write *.nnkp)      :                 F             |
 |  Using Gamma-only branch of algorithms     :                 F             |
 |  CP code post-processing                   :                 F             |
 |  Wavefunction (UNK) file-type              :       unformatted             |
 |  Wavefunction spin channel                 :                up             |
 *----------------------------------------------------------------------------*
 *------------------------------- WANNIERISE ---------------------------------*
 |  Total number of iterations                :               500             |
 |  Number of CG steps before reset           :                 5             |
 |  Trial step length for line search         :             2.000             |
 |  Convergence tolerence                     :         0.100E-09             |
 |  Convergence window                        :                -1             |
 |  Iterations between writing output         :                50             |
 |  Iterations between backing up to disk     :               100             |
 |  Write r^2_nm to file                      :                 F             |
 |  Write xyz WF centres to file              :                 T             |
 |  Write on-site energies <0n|H|0n> to file  :                 F             |
 |  Use guiding centre to control phases      :                 T             |
 |  Use phases for initial projections        :                 F             |
 |  Iterations before starting guiding centres:                 0             |
 |  Iterations between using guiding centres  :                 1             |
 |  Perform selective localization            :                 F             |
 |  Use constrains in selective localization  :                 F             |
 |  Value of the Lagrange multiplier          :         0.100E+01             |
 *----------------------------------------------------------------------------*
 *------------------------------- DISENTANGLE --------------------------------*
 |  Using band disentanglement                :                 T             |
 |  Total number of iterations                :              4000             |
 |  Mixing ratio                              :             0.500             |
 |  Convergence tolerence                     :         1.000E-10             |
 |  Convergence window                        :                 3             |
 *----------------------------------------------------------------------------*
 *-------------------------------- PLOTTING ----------------------------------*
 |  Plotting Wannier functions                :                 F             |
 |   Size of supercell for plotting           :     2x    2x    2             |
 |   Plotting mode (molecule or crystal)      :           crystal             |
 |   Plotting mode for spinor WFs             :             total             |
 |   Include phase for spinor WFs             :                 T             |
 |   Plotting format                          :          xcrysden             |
 |   Plot radius                              :             3.500             |
 |   Plot scale                               :             1.000             |
 *----------------------------------------------------------------------------*
 |  Plotting Fermi surface                    :                 F             |
 |   Number of plotting points (along b_1)    :                50             |
 |   Plotting format                          :          xcrysden             |
 *----------------------------------------------------------------------------*
 |  Plotting interpolated bandstructure       :                 T             |
 |   Number of K-path sections                :                 3             |
 |   Divisions along first K-path section     :               100             |
 |   Output format                            :           gnuplot             |
 |   Output mode                              :               s-k             |
 *----------------------------------------------------------------------------*
 |   K-space path sections:                                                   |
 |    From: Γ      0.000  0.000  0.000     To: K       0.333  0.333  0.000   |
 |    From: K       0.333  0.333  0.000     To: M       0.500  0.000  0.000   |
 |    From: M       0.500  0.000  0.000     To: Γ      0.000  0.000  0.000   |
 *----------------------------------------------------------------------------*
 |  Plotting Hamiltonian in WF basis          :                 T             |
 *----------------------------------------------------------------------------*
 |  Writing data for Van der Waals post-proc  :                 F             |
 *----------------------------------------------------------------------------*
 *------------------------------- TRANSPORT ----------------------------------*
 |  Transport mode                            :              bulk             |
 |   Hamiltonian from external files          :                 F             |
 |   System extended in                       :              none             |
 |   Centre of the unit cell to which WF are translated (fract. coords):      |
 |                                       0.000000,    0.000000,    0.000000   |
 |  Fermi energy (eV)                         :             0.000             |
 *----------------------------------------------------------------------------*
 Time to read parameters        0.013 (sec)

 *---------------------------------- K-MESH ----------------------------------*
 +----------------------------------------------------------------------------+
 |                    Distance to Nearest-Neighbour Shells                    |
 |                    ------------------------------------                    |
 |          Shell             Distance (Ang^-1)          Multiplicity         |
 |          -----             -----------------          ------------         |
 |             1                   0.175448                      6            |
 |             2                   0.265883                      2            |
 |             3                   0.303884                      6            |
 |             4                   0.318552                     12            |
 |             5                   0.350895                      6            |
 |             6                   0.403781                     12            |
 |             7                   0.440251                     12            |
 |             8                   0.464191                     12            |
 |             9                   0.526343                      6            |
 |            10                   0.531765                      2            |
 |            11                   0.534945                     24            |
 |            12                   0.559961                     12            |
 |            13                   0.589686                     12            |
 |            14                   0.607768                      6            |
 |            15                   0.612470                     12            |
 |            16                   0.632585                     12            |
 |            17                   0.637104                     12            |
 |            18                   0.663382                     12            |
 |            19                   0.686191                     24            |
 |            20                   0.701790                      6            |
 |            21                   0.705866                     24            |
 |            22                   0.748205                     12            |
 |            23                   0.750469                     12            |
 |            24                   0.764758                     12            |
 |            25                   0.797648                      2            |
 |            26                   0.804002                     12            |
 |            27                   0.807562                     12            |
 |            28                   0.809660                     24            |
 |            29                   0.816715                     12            |
 |            30                   0.826401                     24            |
 |            31                   0.846825                     24            |
 |            32                   0.853573                     12            |
 |            33                   0.871418                     12            |
 |            34                   0.877238                      6            |
 |            35                   0.880502                     12            |
 |            36                   0.911652                      6            |
 +----------------------------------------------------------------------------+
 | The b-vectors are chosen automatically                                     |
 | Shell:  1 Multiplicity:  6                                                 |
 | b-vector 1 :        0.000000    0.175448    0.000000      (Ang^-1)         |
 | b-vector 2 :        0.151942    0.087724    0.000000      (Ang^-1)         |
 | b-vector 3 :        0.000000   -0.175448    0.000000      (Ang^-1)         |
 | b-vector 4 :        0.151942   -0.087724    0.000000      (Ang^-1)         |
 | b-vector 5 :       -0.151942   -0.087724    0.000000      (Ang^-1)         |
 | b-vector 6 :       -0.151942    0.087724    0.000000      (Ang^-1)         |
 | Shell:  1 w_b   10.8288937      (Ang^2)                                    |
 | B1 condition is not satisfied: Adding another shell                        |
 | Shell:  2 Multiplicity:  2                                                 |
 | b-vector 1 :        0.000000    0.000000    0.265883      (Ang^-1)         |
 | b-vector 2 :        0.000000    0.000000   -0.265883      (Ang^-1)         |
 | Shell:  1 w_b   10.8288937      (Ang^2)                                    |
 | Shell:  2 w_b    7.0727819      (Ang^2)                                    |
 | The following shells are used:   1,  2                                     |
 +----------------------------------------------------------------------------+
 |                        Shell   # Nearest-Neighbours                        |
 |                        -----   --------------------                        |
 |                          1               6                                 |
 |                          2               2                                 |
 +----------------------------------------------------------------------------+
 | Completeness relation is fully satisfied [Eq. (B1), PRB 56, 12847 (1997)]  |
 +----------------------------------------------------------------------------+
 |                  b_k Vectors (Ang^-1) and Weights (Ang^2)                  |
 |                  ----------------------------------------                  |
 |            No.         b_k(x)      b_k(y)      b_k(z)        w_b           |
 |            ---        --------------------------------     --------        |
 |             1         0.000000    0.175448    0.000000    10.828894        |
 |             2         0.151942    0.087724    0.000000    10.828894        |
 |             3         0.000000   -0.175448    0.000000    10.828894        |
 |             4         0.151942   -0.087724    0.000000    10.828894        |
 |             5        -0.151942   -0.087724    0.000000    10.828894        |
 |             6        -0.151942    0.087724    0.000000    10.828894        |
 |             7         0.000000    0.000000    0.265883     7.072782        |
 |             8         0.000000    0.000000   -0.265883     7.072782        |
 +----------------------------------------------------------------------------+
 |                           b_k Directions (Ang^-1)                          |
 |                           -----------------------                          |
 |            No.           x           y           z                         |
 |            ---        --------------------------------                     |
 |             1         0.000000    0.175448    0.000000                     |
 |             2         0.151942    0.087724    0.000000                     |
 |             3         0.151942   -0.087724    0.000000                     |
 |             4         0.000000    0.000000    0.265883                     |
 +----------------------------------------------------------------------------+
  
 Time to get kmesh              0.011 (sec)
 *============================================================================*
 |                              MEMORY ESTIMATE                               |
 |         Maximum RAM allocated during each phase of the calculation         |
 *============================================================================*
 |                        Disentanglement          606.87 Mb                  |
 |                            Wannierise:          379.99 Mb                  |
 |                                                                            |
 |   N.B. by setting optimisation=0 memory usage will be reduced to:          |
 |                        Disentanglement          586.27 Mb                  |
 |                            Wannierise:          243.86 Mb                  |
 |   However, this will result in more i/o and slow down the calculation      |
 |                          plot_wannier:          379.99 Mb                  |
 *----------------------------------------------------------------------------*
  
 Starting a new Wannier90 calculation ...


 Reading overlaps from nbse2.noncolin.mmn    :  Created on  6Oct2023 at 14:11: 2

 Reading projections from nbse2.noncolin.amn :  Created on  6Oct2023 at 14: 6:14

 Time to read overlaps         24.711 (sec)

 *------------------------------- DISENTANGLE --------------------------------*
 +----------------------------------------------------------------------------+
 |                              Energy  Windows                               |
 |                              ---------------                               |
 |                   Outer:  -30.00000  to   30.00000  (eV)                   |
 |                   Inner:   -6.00000  to    2.50000  (eV)                   |
 +----------------------------------------------------------------------------+
 |                        K-points with Frozen States                         |
 |                        ---------------------------                         |
 |     1     2     3     4     5     6     7     8     9                      |
 +----------------------------------------------------------------------------+
   Number of target bands to extract:  352
 +----------------------------------------------------------------------------+
 |                                  Windows                                   |
 |                                  -------                                   |
 |               K-point      Ndimwin     Ndimfroz    Nfirstwin               |
 |               ----------------------------------------------               |
 |                   1          472          326         129                  |
 |                   2          472          314         129                  |
 |                   3          472          314         129                  |
 |                   4          472          314         129                  |
 |                   5          472          301         129                  |
 |                   6          472          314         129                  |
 |                   7          472          314         129                  |
 |                   8          472          314         129                  |
 |                   9          472          301         129                  |
 +----------------------------------------------------------------------------+

                   Unitarised projection of Wannier functions                  
                   ------------------------------------------                  
   A_mn = <psi_m|g_n> --> S = A.A^+ --> U = S^-1/2.A
   In dis_project... done
   Using an inner window (linner = T)
   In dis_proj_froz...
 K-point   1 ndimwin: 472 we want the 26 leading eigenvector(s) of QPQ
  lambda(  1)= -0.000000000000
  lambda(  2)= -0.000000000000
  lambda(  3)= -0.000000000000
  lambda(  4)= -0.000000000000
  lambda(  5)= -0.000000000000
  lambda(  6)= -0.000000000000
  lambda(  7)= -0.000000000000
  lambda(  8)= -0.000000000000
  lambda(  9)= -0.000000000000
  lambda( 10)= -0.000000000000
  lambda( 11)= -0.000000000000
  lambda( 12)= -0.000000000000
  lambda( 13)= -0.000000000000
  lambda( 14)= -0.000000000000
  lambda( 15)= -0.000000000000
  lambda( 16)= -0.000000000000
  lambda( 17)= -0.000000000000
  lambda( 18)= -0.000000000000
  lambda( 19)= -0.000000000000
  lambda( 20)= -0.000000000000
  lambda( 21)= -0.000000000000
  lambda( 22)= -0.000000000000
  lambda( 23)= -0.000000000000
  lambda( 24)= -0.000000000000
  lambda( 25)= -0.000000000000
  lambda( 26)= -0.000000000000
  lambda( 27)= -0.000000000000
  lambda( 28)= -0.000000000000
  lambda( 29)= -0.000000000000
  lambda( 30)= -0.000000000000
  lambda( 31)= -0.000000000000
  lambda( 32)= -0.000000000000
  lambda( 33)= -0.000000000000
  lambda( 34)= -0.000000000000
  lambda( 35)= -0.000000000000
  lambda( 36)= -0.000000000000
  lambda( 37)= -0.000000000000
  lambda( 38)= -0.000000000000
  lambda( 39)= -0.000000000000
  lambda( 40)= -0.000000000000
  lambda( 41)= -0.000000000000
  lambda( 42)= -0.000000000000
  lambda( 43)= -0.000000000000
  lambda( 44)= -0.000000000000
  lambda( 45)= -0.000000000000
  lambda( 46)= -0.000000000000
  lambda( 47)= -0.000000000000
  lambda( 48)= -0.000000000000
  lambda( 49)= -0.000000000000
  lambda( 50)= -0.000000000000
  lambda( 51)= -0.000000000000
  lambda( 52)= -0.000000000000
  lambda( 53)= -0.000000000000
  lambda( 54)= -0.000000000000
  lambda( 55)= -0.000000000000
  lambda( 56)= -0.000000000000
  lambda( 57)= -0.000000000000
  lambda( 58)= -0.000000000000
  lambda( 59)= -0.000000000000
  lambda( 60)= -0.000000000000
  lambda( 61)= -0.000000000000
  lambda( 62)= -0.000000000000
  lambda( 63)= -0.000000000000
  lambda( 64)= -0.000000000000
  lambda( 65)= -0.000000000000
  lambda( 66)= -0.000000000000
  lambda( 67)= -0.000000000000
  lambda( 68)= -0.000000000000
  lambda( 69)= -0.000000000000
  lambda( 70)= -0.000000000000
  lambda( 71)= -0.000000000000
  lambda( 72)= -0.000000000000
  lambda( 73)= -0.000000000000
  lambda( 74)= -0.000000000000
  lambda( 75)= -0.000000000000
  lambda( 76)= -0.000000000000
  lambda( 77)= -0.000000000000
  lambda( 78)= -0.000000000000
  lambda( 79)= -0.000000000000
  lambda( 80)= -0.000000000000
  lambda( 81)= -0.000000000000
  lambda( 82)= -0.000000000000
  lambda( 83)= -0.000000000000
  lambda( 84)= -0.000000000000
  lambda( 85)= -0.000000000000
  lambda( 86)= -0.000000000000
  lambda( 87)= -0.000000000000
  lambda( 88)= -0.000000000000
  lambda( 89)= -0.000000000000
  lambda( 90)= -0.000000000000
  lambda( 91)= -0.000000000000
  lambda( 92)= -0.000000000000
  lambda( 93)= -0.000000000000
  lambda( 94)= -0.000000000000
  lambda( 95)= -0.000000000000
  lambda( 96)= -0.000000000000
  lambda( 97)= -0.000000000000
  lambda( 98)= -0.000000000000
  lambda( 99)= -0.000000000000
  lambda(100)= -0.000000000000
  lambda(101)= -0.000000000000
  lambda(102)= -0.000000000000
  lambda(103)= -0.000000000000
  lambda(104)= -0.000000000000
  lambda(105)= -0.000000000000
  lambda(106)= -0.000000000000
  lambda(107)= -0.000000000000
  lambda(108)= -0.000000000000
  lambda(109)= -0.000000000000
  lambda(110)= -0.000000000000
  lambda(111)= -0.000000000000
  lambda(112)= -0.000000000000
  lambda(113)= -0.000000000000
  lambda(114)= -0.000000000000
  lambda(115)= -0.000000000000
  lambda(116)= -0.000000000000
  lambda(117)= -0.000000000000
  lambda(118)= -0.000000000000
  lambda(119)= -0.000000000000
  lambda(120)= -0.000000000000
  lambda(121)= -0.000000000000
  lambda(122)= -0.000000000000
  lambda(123)= -0.000000000000
  lambda(124)= -0.000000000000
  lambda(125)= -0.000000000000
  lambda(126)= -0.000000000000
  lambda(127)= -0.000000000000
  lambda(128)= -0.000000000000
  lambda(129)= -0.000000000000
  lambda(130)= -0.000000000000
  lambda(131)= -0.000000000000
  lambda(132)= -0.000000000000
  lambda(133)= -0.000000000000
  lambda(134)= -0.000000000000
  lambda(135)= -0.000000000000
  lambda(136)= -0.000000000000
  lambda(137)= -0.000000000000
  lambda(138)= -0.000000000000
  lambda(139)= -0.000000000000
  lambda(140)= -0.000000000000
  lambda(141)= -0.000000000000
  lambda(142)= -0.000000000000
  lambda(143)= -0.000000000000
  lambda(144)= -0.000000000000
  lambda(145)= -0.000000000000
  lambda(146)= -0.000000000000
  lambda(147)= -0.000000000000
  lambda(148)= -0.000000000000
  lambda(149)= -0.000000000000
  lambda(150)= -0.000000000000
  lambda(151)= -0.000000000000
  lambda(152)= -0.000000000000
  lambda(153)= -0.000000000000
  lambda(154)= -0.000000000000
  lambda(155)= -0.000000000000
  lambda(156)= -0.000000000000
  lambda(157)= -0.000000000000
  lambda(158)= -0.000000000000
  lambda(159)= -0.000000000000
  lambda(160)= -0.000000000000
  lambda(161)= -0.000000000000
  lambda(162)= -0.000000000000
  lambda(163)=  0.000000000000
  lambda(164)=  0.000000000000
  lambda(165)=  0.000000000000
  lambda(166)=  0.000000000000
  lambda(167)=  0.000000000000
  lambda(168)=  0.000000000000
  lambda(169)=  0.000000000000
  lambda(170)=  0.000000000000
  lambda(171)=  0.000000000000
  lambda(172)=  0.000000000000
  lambda(173)=  0.000000000000
  lambda(174)=  0.000000000000
  lambda(175)=  0.000000000000
  lambda(176)=  0.000000000000
  lambda(177)=  0.000000000000
  lambda(178)=  0.000000000000
  lambda(179)=  0.000000000000
  lambda(180)=  0.000000000000
  lambda(181)=  0.000000000000
  lambda(182)=  0.000000000000
  lambda(183)=  0.000000000000
  lambda(184)=  0.000000000000
  lambda(185)=  0.000000000000
  lambda(186)=  0.000000000000
  lambda(187)=  0.000000000000
  lambda(188)=  0.000000000000
  lambda(189)=  0.000000000000
  lambda(190)=  0.000000000000
  lambda(191)=  0.000000000000
  lambda(192)=  0.000000000000
  lambda(193)=  0.000000000000
  lambda(194)=  0.000000000000
  lambda(195)=  0.000000000000
  lambda(196)=  0.000000000000
  lambda(197)=  0.000000000000
  lambda(198)=  0.000000000000
  lambda(199)=  0.000000000000
  lambda(200)=  0.000000000000
  lambda(201)=  0.000000000000
  lambda(202)=  0.000000000000
  lambda(203)=  0.000000000000
  lambda(204)=  0.000000000000
  lambda(205)=  0.000000000000
  lambda(206)=  0.000000000000
  lambda(207)=  0.000000000000
  lambda(208)=  0.000000000000
  lambda(209)=  0.000000000000
  lambda(210)=  0.000000000000
  lambda(211)=  0.000000000000
  lambda(212)=  0.000000000000
  lambda(213)=  0.000000000000
  lambda(214)=  0.000000000000
  lambda(215)=  0.000000000000
  lambda(216)=  0.000000000000
  lambda(217)=  0.000000000000
  lambda(218)=  0.000000000000
  lambda(219)=  0.000000000000
  lambda(220)=  0.000000000000
  lambda(221)=  0.000000000000
  lambda(222)=  0.000000000000
  lambda(223)=  0.000000000000
  lambda(224)=  0.000000000000
  lambda(225)=  0.000000000000
  lambda(226)=  0.000000000000
  lambda(227)=  0.000000000000
  lambda(228)=  0.000000000000
  lambda(229)=  0.000000000000
  lambda(230)=  0.000000000000
  lambda(231)=  0.000000000000
  lambda(232)=  0.000000000000
  lambda(233)=  0.000000000000
  lambda(234)=  0.000000000000
  lambda(235)=  0.000000000000
  lambda(236)=  0.000000000000
  lambda(237)=  0.000000000000
  lambda(238)=  0.000000000000
  lambda(239)=  0.000000000000
  lambda(240)=  0.000000000000
  lambda(241)=  0.000000000000
  lambda(242)=  0.000000000000
  lambda(243)=  0.000000000000
  lambda(244)=  0.000000000000
  lambda(245)=  0.000000000000
  lambda(246)=  0.000000000000
  lambda(247)=  0.000000000000
  lambda(248)=  0.000000000000
  lambda(249)=  0.000000000000
  lambda(250)=  0.000000000000
  lambda(251)=  0.000000000000
  lambda(252)=  0.000000000000
  lambda(253)=  0.000000000000
  lambda(254)=  0.000000000000
  lambda(255)=  0.000000000000
  lambda(256)=  0.000000000000
  lambda(257)=  0.000000000000
  lambda(258)=  0.000000000000
  lambda(259)=  0.000000000000
  lambda(260)=  0.000000000000
  lambda(261)=  0.000000000000
  lambda(262)=  0.000000000000
  lambda(263)=  0.000000000000
  lambda(264)=  0.000000000000
  lambda(265)=  0.000000000000
  lambda(266)=  0.000000000000
  lambda(267)=  0.000000000000
  lambda(268)=  0.000000000000
  lambda(269)=  0.000000000000
  lambda(270)=  0.000000000000
  lambda(271)=  0.000000000000
  lambda(272)=  0.000000000000
  lambda(273)=  0.000000000000
  lambda(274)=  0.000000000000
  lambda(275)=  0.000000000000
  lambda(276)=  0.000000000000
  lambda(277)=  0.000000000000
  lambda(278)=  0.000000000000
  lambda(279)=  0.000000000000
  lambda(280)=  0.000000000000
  lambda(281)=  0.000000000000
  lambda(282)=  0.000000000000
  lambda(283)=  0.000000000000
  lambda(284)=  0.000000000000
  lambda(285)=  0.000000000000
  lambda(286)=  0.000000000000
  lambda(287)=  0.000000000000
  lambda(288)=  0.000000000000
  lambda(289)=  0.000000000000
  lambda(290)=  0.000000000000
  lambda(291)=  0.000000000000
  lambda(292)=  0.000000000000
  lambda(293)=  0.000000000000
  lambda(294)=  0.000000000000
  lambda(295)=  0.000000000000
  lambda(296)=  0.000000000000
  lambda(297)=  0.000000000000
  lambda(298)=  0.000000000000
  lambda(299)=  0.000000000000
  lambda(300)=  0.000000000000
  lambda(301)=  0.000000000000
  lambda(302)=  0.000000000000
  lambda(303)=  0.000000000000
  lambda(304)=  0.000000000000
  lambda(305)=  0.000000000000
  lambda(306)=  0.000000000000
  lambda(307)=  0.000000000000
  lambda(308)=  0.000000000000
  lambda(309)=  0.000000000000
  lambda(310)=  0.000000000000
  lambda(311)=  0.000000000000
  lambda(312)=  0.000000000000
  lambda(313)=  0.000000000000
  lambda(314)=  0.000000000000
  lambda(315)=  0.000000000000
  lambda(316)=  0.000000000000
  lambda(317)=  0.000000000000
  lambda(318)=  0.000000000000
  lambda(319)=  0.000000000000
  lambda(320)=  0.000000000000
  lambda(321)=  0.000000000000
  lambda(322)=  0.000000000000
  lambda(323)=  0.000000000000
  lambda(324)=  0.000000000000
  lambda(325)=  0.000000000000
  lambda(326)=  0.000000000000
  lambda(327)=  0.000000000001
  lambda(328)=  0.000000000001
  lambda(329)=  0.000000003447
  lambda(330)=  0.000000003447
  lambda(331)=  0.000002080464
  lambda(332)=  0.000002080466
  lambda(333)=  0.000073206987
  lambda(334)=  0.000073206999
  lambda(335)=  0.000588482363
  lambda(336)=  0.000588482412
  lambda(337)=  0.000858683624
  lambda(338)=  0.000858696923
  lambda(339)=  0.000858743458
  lambda(340)=  0.000858747877
  lambda(341)=  0.000858775140
  lambda(342)=  0.000858782412
  lambda(343)=  0.000858953867
  lambda(344)=  0.000858967052
  lambda(345)=  0.000858988000
  lambda(346)=  0.000858990392
  lambda(347)=  0.000859064602
  lambda(348)=  0.000859070968
  lambda(349)=  0.016515332290
  lambda(350)=  0.016515337526
  lambda(351)=  0.016515513915
  lambda(352)=  0.016515518786
  lambda(353)=  0.016515738670
  lambda(354)=  0.016515741542
  lambda(355)=  0.016516011524
  lambda(356)=  0.016516013981
  lambda(357)=  0.016516088320
  lambda(358)=  0.016516089306
  lambda(359)=  0.016516282624
  lambda(360)=  0.016516284693
  lambda(361)=  0.020881849388
  lambda(362)=  0.020881850944
  lambda(363)=  0.031451500318
  lambda(364)=  0.031451501960
  lambda(365)=  0.031486781125
  lambda(366)=  0.031486789896
  lambda(367)=  0.031488147838
  lambda(368)=  0.031488149428
  lambda(369)=  0.040010534820
  lambda(370)=  0.040010543273
  lambda(371)=  0.040011146663
  lambda(372)=  0.040011155675
  lambda(373)=  0.040011653749
  lambda(374)=  0.040011671011
  lambda(375)=  0.040012648412
  lambda(376)=  0.040012659841
  lambda(377)=  0.040014650170
  lambda(378)=  0.040014658429
  lambda(379)=  0.040015670999
  lambda(380)=  0.040015684780
  lambda(381)=  0.044035519169
  lambda(382)=  0.044035526906
  lambda(383)=  0.079519136558
  lambda(384)=  0.079519144884
  lambda(385)=  0.079532607485
  lambda(386)=  0.079532629269
  lambda(387)=  0.079532735301
  lambda(388)=  0.079532742674
  lambda(389)=  0.088627471041
  lambda(390)=  0.088628062267
  lambda(391)=  0.088637612882
  lambda(392)=  0.088637939955
  lambda(393)=  0.088653464795
  lambda(394)=  0.088653596305
  lambda(395)=  0.089989575556
  lambda(396)=  0.089996680653
  lambda(397)=  0.089998621458
  lambda(398)=  0.090009730275
  lambda(399)=  0.090459496133
  lambda(400)=  0.090464854730
  lambda(401)=  0.093698048388
  lambda(402)=  0.093729657435
  lambda(403)=  0.093743678331
  lambda(404)=  0.093745420634
  lambda(405)=  0.108419770172
  lambda(406)=  0.108420916650
  lambda(407)=  0.109788602975
  lambda(408)=  0.109803305012
  lambda(409)=  0.109808976718
  lambda(410)=  0.109809268406
  lambda(411)=  0.109810069542
  lambda(412)=  0.109810412180
  lambda(413)=  0.121527583852
  lambda(414)=  0.121527592066
  lambda(415)=  0.121528739178
  lambda(416)=  0.121528743723
  lambda(417)=  0.121532579283
  lambda(418)=  0.121532582857
  lambda(419)=  0.121533794010
  lambda(420)=  0.121533800869
  lambda(421)=  0.121535948450
  lambda(422)=  0.121535956877
  lambda(423)=  0.121536604027
  lambda(424)=  0.121536611999
  lambda(425)=  0.143793654088
  lambda(426)=  0.143860072234
  lambda(427)=  0.143883630503
  lambda(428)=  0.143901472590
  lambda(429)=  0.151112364941
  lambda(430)=  0.151112373046
  lambda(431)=  0.151112744501
  lambda(432)=  0.151112748075
  lambda(433)=  0.151113449367
  lambda(434)=  0.151113452484
  lambda(435)=  0.151113751577
  lambda(436)=  0.151113753393
  lambda(437)=  0.151119080930
  lambda(438)=  0.151119083686
  lambda(439)=  0.151120017186
  lambda(440)=  0.151120019382
  lambda(441)=  0.200333701375
  lambda(442)=  0.200333702411
  lambda(443)=  0.200333919382
  lambda(444)=  0.200333924376
  lambda(445)=  0.200340500954
  lambda(446)=  0.200340502023
  lambda(447)=  1.000000000000
  lambda(448)=  1.000000000000
  lambda(449)=  1.000000000000
  lambda(450)=  1.000000000000
  lambda(451)=  1.000000000000
  lambda(452)=  1.000000000000
  lambda(453)=  1.000000000000
  lambda(454)=  1.000000000000
  lambda(455)=  1.000000000000
  lambda(456)=  1.000000000000
  lambda(457)=  1.000000000000
  lambda(458)=  1.000000000000
  lambda(459)=  1.000000000000
  lambda(460)=  1.000000000000
  lambda(461)=  1.000000000000
  lambda(462)=  1.000000000000
  lambda(463)=  1.000000000000
  lambda(464)=  1.000000000000
  lambda(465)=  1.000000000000
  lambda(466)=  1.000000000000
  lambda(467)=  1.000000000000
  lambda(468)=  1.000000000000
  lambda(469)=  1.000000000000
  lambda(470)=  1.000000000000
  lambda(471)=  1.000000000000
  lambda(472)=  1.000000000000

 K-point   2 ndimwin: 472 we want the 38 leading eigenvector(s) of QPQ
  lambda(  1)= -0.000000000000
  lambda(  2)= -0.000000000000
  lambda(  3)= -0.000000000000
  lambda(  4)= -0.000000000000
  lambda(  5)= -0.000000000000
  lambda(  6)= -0.000000000000
  lambda(  7)= -0.000000000000
  lambda(  8)= -0.000000000000
  lambda(  9)= -0.000000000000
  lambda( 10)= -0.000000000000
  lambda( 11)= -0.000000000000
  lambda( 12)= -0.000000000000
  lambda( 13)= -0.000000000000
  lambda( 14)= -0.000000000000
  lambda( 15)= -0.000000000000
  lambda( 16)= -0.000000000000
  lambda( 17)= -0.000000000000
  lambda( 18)= -0.000000000000
  lambda( 19)= -0.000000000000
  lambda( 20)= -0.000000000000
  lambda( 21)= -0.000000000000
  lambda( 22)= -0.000000000000
  lambda( 23)= -0.000000000000
  lambda( 24)= -0.000000000000
  lambda( 25)= -0.000000000000
  lambda( 26)= -0.000000000000
  lambda( 27)= -0.000000000000
  lambda( 28)= -0.000000000000
  lambda( 29)= -0.000000000000
  lambda( 30)= -0.000000000000
  lambda( 31)= -0.000000000000
  lambda( 32)= -0.000000000000
  lambda( 33)= -0.000000000000
  lambda( 34)= -0.000000000000
  lambda( 35)= -0.000000000000
  lambda( 36)= -0.000000000000
  lambda( 37)= -0.000000000000
  lambda( 38)= -0.000000000000
  lambda( 39)= -0.000000000000
  lambda( 40)= -0.000000000000
  lambda( 41)= -0.000000000000
  lambda( 42)= -0.000000000000
  lambda( 43)= -0.000000000000
  lambda( 44)= -0.000000000000
  lambda( 45)= -0.000000000000
  lambda( 46)= -0.000000000000
  lambda( 47)= -0.000000000000
  lambda( 48)= -0.000000000000
  lambda( 49)= -0.000000000000
  lambda( 50)= -0.000000000000
  lambda( 51)= -0.000000000000
  lambda( 52)= -0.000000000000
  lambda( 53)= -0.000000000000
  lambda( 54)= -0.000000000000
  lambda( 55)= -0.000000000000
  lambda( 56)= -0.000000000000
  lambda( 57)= -0.000000000000
  lambda( 58)= -0.000000000000
  lambda( 59)= -0.000000000000
  lambda( 60)= -0.000000000000
  lambda( 61)= -0.000000000000
  lambda( 62)= -0.000000000000
  lambda( 63)= -0.000000000000
  lambda( 64)= -0.000000000000
  lambda( 65)= -0.000000000000
  lambda( 66)= -0.000000000000
  lambda( 67)= -0.000000000000
  lambda( 68)= -0.000000000000
  lambda( 69)= -0.000000000000
  lambda( 70)= -0.000000000000
  lambda( 71)= -0.000000000000
  lambda( 72)= -0.000000000000
  lambda( 73)= -0.000000000000
  lambda( 74)= -0.000000000000
  lambda( 75)= -0.000000000000
  lambda( 76)= -0.000000000000
  lambda( 77)= -0.000000000000
  lambda( 78)= -0.000000000000
  lambda( 79)= -0.000000000000
  lambda( 80)= -0.000000000000
  lambda( 81)= -0.000000000000
  lambda( 82)= -0.000000000000
  lambda( 83)= -0.000000000000
  lambda( 84)= -0.000000000000
  lambda( 85)= -0.000000000000
  lambda( 86)= -0.000000000000
  lambda( 87)= -0.000000000000
  lambda( 88)= -0.000000000000
  lambda( 89)= -0.000000000000
  lambda( 90)= -0.000000000000
  lambda( 91)= -0.000000000000
  lambda( 92)= -0.000000000000
  lambda( 93)= -0.000000000000
  lambda( 94)= -0.000000000000
  lambda( 95)= -0.000000000000
  lambda( 96)= -0.000000000000
  lambda( 97)= -0.000000000000
  lambda( 98)= -0.000000000000
  lambda( 99)= -0.000000000000
  lambda(100)= -0.000000000000
  lambda(101)= -0.000000000000
  lambda(102)= -0.000000000000
  lambda(103)= -0.000000000000
  lambda(104)= -0.000000000000
  lambda(105)= -0.000000000000
  lambda(106)= -0.000000000000
  lambda(107)= -0.000000000000
  lambda(108)= -0.000000000000
  lambda(109)= -0.000000000000
  lambda(110)= -0.000000000000
  lambda(111)= -0.000000000000
  lambda(112)= -0.000000000000
  lambda(113)= -0.000000000000
  lambda(114)= -0.000000000000
  lambda(115)= -0.000000000000
  lambda(116)= -0.000000000000
  lambda(117)= -0.000000000000
  lambda(118)= -0.000000000000
  lambda(119)= -0.000000000000
  lambda(120)= -0.000000000000
  lambda(121)= -0.000000000000
  lambda(122)= -0.000000000000
  lambda(123)= -0.000000000000
  lambda(124)= -0.000000000000
  lambda(125)= -0.000000000000
  lambda(126)= -0.000000000000
  lambda(127)= -0.000000000000
  lambda(128)= -0.000000000000
  lambda(129)= -0.000000000000
  lambda(130)= -0.000000000000
  lambda(131)= -0.000000000000
  lambda(132)= -0.000000000000
  lambda(133)= -0.000000000000
  lambda(134)= -0.000000000000
  lambda(135)= -0.000000000000
  lambda(136)= -0.000000000000
  lambda(137)= -0.000000000000
  lambda(138)= -0.000000000000
  lambda(139)= -0.000000000000
  lambda(140)= -0.000000000000
  lambda(141)= -0.000000000000
  lambda(142)= -0.000000000000
  lambda(143)= -0.000000000000
  lambda(144)= -0.000000000000
  lambda(145)= -0.000000000000
  lambda(146)= -0.000000000000
  lambda(147)= -0.000000000000
  lambda(148)= -0.000000000000
  lambda(149)= -0.000000000000
  lambda(150)= -0.000000000000
  lambda(151)= -0.000000000000
  lambda(152)= -0.000000000000
  lambda(153)= -0.000000000000
  lambda(154)=  0.000000000000
  lambda(155)=  0.000000000000
  lambda(156)=  0.000000000000
  lambda(157)=  0.000000000000
  lambda(158)=  0.000000000000
  lambda(159)=  0.000000000000
  lambda(160)=  0.000000000000
  lambda(161)=  0.000000000000
  lambda(162)=  0.000000000000
  lambda(163)=  0.000000000000
  lambda(164)=  0.000000000000
  lambda(165)=  0.000000000000
  lambda(166)=  0.000000000000
  lambda(167)=  0.000000000000
  lambda(168)=  0.000000000000
  lambda(169)=  0.000000000000
  lambda(170)=  0.000000000000
  lambda(171)=  0.000000000000
  lambda(172)=  0.000000000000
  lambda(173)=  0.000000000000
  lambda(174)=  0.000000000000
  lambda(175)=  0.000000000000
  lambda(176)=  0.000000000000
  lambda(177)=  0.000000000000
  lambda(178)=  0.000000000000
  lambda(179)=  0.000000000000
  lambda(180)=  0.000000000000
  lambda(181)=  0.000000000000
  lambda(182)=  0.000000000000
  lambda(183)=  0.000000000000
  lambda(184)=  0.000000000000
  lambda(185)=  0.000000000000
  lambda(186)=  0.000000000000
  lambda(187)=  0.000000000000
  lambda(188)=  0.000000000000
  lambda(189)=  0.000000000000
  lambda(190)=  0.000000000000
  lambda(191)=  0.000000000000
  lambda(192)=  0.000000000000
  lambda(193)=  0.000000000000
  lambda(194)=  0.000000000000
  lambda(195)=  0.000000000000
  lambda(196)=  0.000000000000
  lambda(197)=  0.000000000000
  lambda(198)=  0.000000000000
  lambda(199)=  0.000000000000
  lambda(200)=  0.000000000000
  lambda(201)=  0.000000000000
  lambda(202)=  0.000000000000
  lambda(203)=  0.000000000000
  lambda(204)=  0.000000000000
  lambda(205)=  0.000000000000
  lambda(206)=  0.000000000000
  lambda(207)=  0.000000000000
  lambda(208)=  0.000000000000
  lambda(209)=  0.000000000000
  lambda(210)=  0.000000000000
  lambda(211)=  0.000000000000
  lambda(212)=  0.000000000000
  lambda(213)=  0.000000000000
  lambda(214)=  0.000000000000
  lambda(215)=  0.000000000000
  lambda(216)=  0.000000000000
  lambda(217)=  0.000000000000
  lambda(218)=  0.000000000000
  lambda(219)=  0.000000000000
  lambda(220)=  0.000000000000
  lambda(221)=  0.000000000000
  lambda(222)=  0.000000000000
  lambda(223)=  0.000000000000
  lambda(224)=  0.000000000000
  lambda(225)=  0.000000000000
  lambda(226)=  0.000000000000
  lambda(227)=  0.000000000000
  lambda(228)=  0.000000000000
  lambda(229)=  0.000000000000
  lambda(230)=  0.000000000000
  lambda(231)=  0.000000000000
  lambda(232)=  0.000000000000
  lambda(233)=  0.000000000000
  lambda(234)=  0.000000000000
  lambda(235)=  0.000000000000
  lambda(236)=  0.000000000000
  lambda(237)=  0.000000000000
  lambda(238)=  0.000000000000
  lambda(239)=  0.000000000000
  lambda(240)=  0.000000000000
  lambda(241)=  0.000000000000
  lambda(242)=  0.000000000000
  lambda(243)=  0.000000000000
  lambda(244)=  0.000000000000
  lambda(245)=  0.000000000000
  lambda(246)=  0.000000000000
  lambda(247)=  0.000000000000
  lambda(248)=  0.000000000000
  lambda(249)=  0.000000000000
  lambda(250)=  0.000000000000
  lambda(251)=  0.000000000000
  lambda(252)=  0.000000000000
  lambda(253)=  0.000000000000
  lambda(254)=  0.000000000000
  lambda(255)=  0.000000000000
  lambda(256)=  0.000000000000
  lambda(257)=  0.000000000000
  lambda(258)=  0.000000000000
  lambda(259)=  0.000000000000
  lambda(260)=  0.000000000000
  lambda(261)=  0.000000000000
[...]
  WF centre   26  (  6.892085, -0.035350,  1.677151 )
  WF centre   27  (  6.892075,  0.142491,  1.677152 )
  WF centre   28  (  6.892088,  0.142497,  1.677152 )
  WF centre   29  (  6.892111, -0.134161,  1.677152 )
  WF centre   30  (  6.892070, -0.134158,  1.677152 )
  WF centre   31  ( 10.338152, -0.006581,  1.677152 )
  WF centre   32  ( 10.338151, -0.006580,  1.677152 )
  WF centre   33  ( 10.338128,  0.035100,  1.677153 )
  WF centre   34  ( 10.338127,  0.035100,  1.677153 )
  WF centre   35  ( 10.338122, -0.035328,  1.677150 )
  WF centre   36  ( 10.338123, -0.035328,  1.677150 )
  WF centre   37  ( 10.338087,  0.142480,  1.677152 )
  WF centre   38  ( 10.338097,  0.142478,  1.677152 )
  WF centre   39  ( 10.338050, -0.134162,  1.677152 )
  WF centre   40  ( 10.338034, -0.134151,  1.677153 )
  WF centre   41  (  8.615143,  2.977773,  1.677152 )
  WF centre   42  (  8.615145,  2.977773,  1.677152 )
  WF centre   43  (  8.615113,  3.019463,  1.677156 )
  WF centre   44  (  8.615113,  3.019463,  1.677152 )
  WF centre   45  (  8.615104,  2.949042,  1.677151 )
  WF centre   46  (  8.615104,  2.949042,  1.677150 )
  WF centre   47  (  8.615179,  3.126937,  1.677152 )
  WF centre   48  (  8.615193,  3.126942,  1.677152 )
  WF centre   49  (  8.614887,  2.850156,  1.677152 )
  WF centre   50  (  8.614860,  2.850157,  1.677152 )
  WF centre   51  (  6.892089,  5.962158,  1.677152 )
  WF centre   52  (  6.892085,  5.962158,  1.677152 )
  WF centre   53  (  6.892086,  6.003820,  1.677154 )
  WF centre   54  (  6.892086,  6.003821,  1.677152 )
  WF centre   55  (  6.892086,  5.933411,  1.677149 )
  WF centre   56  (  6.892086,  5.933411,  1.677151 )
  WF centre   57  (  6.892081,  6.111139,  1.677151 )
  WF centre   58  (  6.892091,  6.111138,  1.677152 )
  WF centre   59  (  6.892092,  5.834447,  1.677152 )
  WF centre   60  (  6.892081,  5.834449,  1.677152 )
  WF centre   61  (  5.169041,  8.946522,  1.677152 )
  WF centre   62  (  5.169039,  8.946523,  1.677152 )
  WF centre   63  (  5.169052,  8.988181,  1.677153 )
  WF centre   64  (  5.169051,  8.988182,  1.677152 )
  WF centre   65  (  5.169062,  8.917767,  1.677149 )
  WF centre   66  (  5.169062,  8.917768,  1.677150 )
  WF centre   67  (  5.168968,  9.095467,  1.677152 )
  WF centre   68  (  5.168970,  9.095471,  1.677152 )
  WF centre   69  (  5.169165,  8.818866,  1.677153 )
  WF centre   70  (  5.169145,  8.818871,  1.677152 )
  WF centre   71  (  1.722992,  8.946495,  1.677152 )
  WF centre   72  (  1.722993,  8.946496,  1.677152 )
  WF centre   73  (  1.723004,  8.988180,  1.677152 )
  WF centre   74  (  1.723004,  8.988180,  1.677152 )
  WF centre   75  (  1.723019,  8.917757,  1.677150 )
  WF centre   76  (  1.723019,  8.917757,  1.677149 )
  WF centre   77  (  1.723012,  9.095480,  1.677152 )
  WF centre   78  (  1.723019,  9.095475,  1.677152 )
  WF centre   79  (  1.723040,  8.818969,  1.677152 )
  WF centre   80  (  1.723020,  8.818968,  1.677152 )
  WF centre   81  ( -1.722995,  8.946496,  1.677152 )
  WF centre   82  ( -1.722993,  8.946496,  1.677152 )
  WF centre   83  ( -1.723004,  8.988180,  1.677153 )
  WF centre   84  ( -1.723004,  8.988180,  1.677153 )
  WF centre   85  ( -1.723019,  8.917757,  1.677152 )
  WF centre   86  ( -1.723019,  8.917757,  1.677151 )
  WF centre   87  ( -1.723025,  9.095473,  1.677152 )
  WF centre   88  ( -1.723011,  9.095483,  1.677152 )
  WF centre   89  ( -1.723006,  8.818975,  1.677152 )
  WF centre   90  ( -1.723036,  8.818967,  1.677152 )
  WF centre   91  ( -5.169036,  8.946522,  1.677152 )
  WF centre   92  ( -5.169041,  8.946523,  1.677152 )
  WF centre   93  ( -5.169051,  8.988182,  1.677152 )
  WF centre   94  ( -5.169052,  8.988181,  1.677153 )
  WF centre   95  ( -5.169063,  8.917768,  1.677150 )
  WF centre   96  ( -5.169062,  8.917767,  1.677151 )
  WF centre   97  ( -5.168975,  9.095468,  1.677152 )
  WF centre   98  ( -5.168966,  9.095468,  1.677152 )
  WF centre   99  ( -5.169149,  8.818872,  1.677153 )
  WF centre  100  ( -5.169157,  8.818867,  1.677152 )
  WF centre  101  (  5.169029,  2.977770,  1.677152 )
  WF centre  102  (  5.169028,  2.977774,  1.677152 )
  WF centre  103  (  5.169058,  3.019463,  1.677154 )
  WF centre  104  (  5.169058,  3.019463,  1.677153 )
  WF centre  105  (  5.169067,  2.949042,  1.677152 )
  WF centre  106  (  5.169067,  2.949042,  1.677151 )
  WF centre  107  (  5.168977,  3.126941,  1.677152 )
  WF centre  108  (  5.168992,  3.126939,  1.677152 )
  WF centre  109  (  5.169311,  2.850157,  1.677152 )
  WF centre  110  (  5.169288,  2.850155,  1.677152 )
  WF centre  111  (  3.445970,  5.962173,  1.677152 )
  WF centre  112  (  3.445971,  5.962174,  1.677152 )
  WF centre  113  (  3.446008,  6.003823,  1.677152 )
  WF centre  114  (  3.446007,  6.003824,  1.677154 )
  WF centre  115  (  3.446042,  5.933425,  1.677148 )
  WF centre  116  (  3.446042,  5.933424,  1.677151 )
  WF centre  117  (  3.446032,  6.111181,  1.677152 )
  WF centre  118  (  3.446032,  6.111182,  1.677152 )
  WF centre  119  (  3.446120,  5.834530,  1.677152 )
  WF centre  120  (  3.446097,  5.834532,  1.677152 )
  WF centre  121  ( -0.000000,  5.962161,  1.677152 )
  WF centre  122  (  0.000000,  5.962162,  1.677152 )
  WF centre  123  (  0.000000,  6.003827,  1.677153 )
  WF centre  124  ( -0.000000,  6.003827,  1.677153 )
  WF centre  125  ( -0.000000,  5.933424,  1.677153 )
  WF centre  126  ( -0.000000,  5.933424,  1.677151 )
  WF centre  127  ( -0.000007,  6.111132,  1.677152 )
  WF centre  128  (  0.000011,  6.111134,  1.677152 )
  WF centre  129  (  0.000015,  5.834613,  1.677152 )
  WF centre  130  ( -0.000010,  5.834616,  1.677152 )
  WF centre  131  (  1.723007,  2.977780,  1.677152 )
  WF centre  132  (  1.723005,  2.977782,  1.677152 )
  WF centre  133  (  1.723014,  3.019468,  1.677151 )
  WF centre  134  (  1.723012,  3.019468,  1.677154 )
  WF centre  135  (  1.723022,  2.949051,  1.677152 )
  WF centre  136  (  1.723022,  2.949051,  1.677153 )
  WF centre  137  (  1.723028,  3.126848,  1.677152 )
  WF centre  138  (  1.723024,  3.126853,  1.677152 )
  WF centre  139  (  1.723114,  2.850246,  1.677152 )
  WF centre  140  (  1.723097,  2.850246,  1.677152 )
  WF centre  141  ( -1.723004,  2.977781,  1.677152 )
  WF centre  142  ( -1.723008,  2.977780,  1.677152 )
  WF centre  143  ( -1.723012,  3.019467,  1.677153 )
  WF centre  144  ( -1.723013,  3.019468,  1.677154 )
  WF centre  145  ( -1.723022,  2.949051,  1.677152 )
  WF centre  146  ( -1.723022,  2.949051,  1.677152 )
  WF centre  147  ( -1.723034,  3.126848,  1.677152 )
  WF centre  148  ( -1.723027,  3.126847,  1.677152 )
  WF centre  149  ( -1.723088,  2.850245,  1.677152 )
  WF centre  150  ( -1.723103,  2.850246,  1.677152 )
  WF centre  151  ( -3.445971,  5.962174,  1.677152 )
  WF centre  152  ( -3.445972,  5.962173,  1.677152 )
  WF centre  153  ( -3.446007,  6.003824,  1.677155 )
  WF centre  154  ( -3.446008,  6.003824,  1.677151 )
  WF centre  155  ( -3.446042,  5.933425,  1.677154 )
  WF centre  156  ( -3.446042,  5.933425,  1.677151 )
  WF centre  157  ( -3.446041,  6.111175,  1.677152 )
  WF centre  158  ( -3.446037,  6.111185,  1.677152 )
  WF centre  159  ( -3.446090,  5.834532,  1.677152 )
  WF centre  160  ( -3.446109,  5.834535,  1.677152 )
  WF centre  161  (  1.722984,  0.989730, -0.083281 )
  WF centre  162  (  1.722989,  0.989731, -0.083282 )
  WF centre  163  (  1.722992,  0.975774,  0.040555 )
  WF centre  164  (  1.722998,  0.975772,  0.040554 )
  WF centre  165  (  1.723021,  1.018234,  0.040454 )
  WF centre  166  (  1.723022,  1.018229,  0.040453 )
  WF centre  167  (  1.722980,  0.989732,  3.437585 )
  WF centre  168  (  1.722983,  0.989731,  3.437586 )
  WF centre  169  (  1.722992,  0.975774,  3.313751 )
  WF centre  170  (  1.723000,  0.975772,  3.313752 )
  WF centre  171  (  1.723021,  1.018233,  3.313850 )
  WF centre  172  (  1.723022,  1.018229,  3.313851 )
  WF centre  173  (  5.169043,  0.989690, -0.083303 )
  WF centre  174  (  5.169045,  0.989696, -0.083301 )
  WF centre  175  (  5.169077,  0.975832,  0.040623 )
  WF centre  176  (  5.169082,  0.975831,  0.040625 )
  WF centre  177  (  5.169047,  1.018185,  0.040481 )
  WF centre  178  (  5.169044,  1.018187,  0.040493 )
  WF centre  179  (  5.169036,  0.989692,  3.437606 )
  WF centre  180  (  5.169040,  0.989695,  3.437605 )
  WF centre  181  (  5.169079,  0.975832,  3.313684 )
  WF centre  182  (  5.169083,  0.975832,  3.313682 )
  WF centre  183  (  5.169047,  1.018184,  3.313824 )
  WF centre  184  (  5.169044,  1.018187,  3.313809 )
  WF centre  185  (  8.615128,  0.989695, -0.083302 )
  WF centre  186  (  8.615132,  0.989689, -0.083303 )
  WF centre  187  (  8.615088,  0.975829,  0.040624 )
  WF centre  188  (  8.615090,  0.975831,  0.040623 )
  WF centre  189  (  8.615130,  1.018188,  0.040489 )
  WF centre  190  (  8.615124,  1.018180,  0.040484 )
  WF centre  191  (  8.615126,  0.989697,  3.437605 )
  WF centre  192  (  8.615130,  0.989693,  3.437607 )
  WF centre  193  (  8.615089,  0.975830,  3.313681 )
  WF centre  194  (  8.615091,  0.975831,  3.313681 )
  WF centre  195  (  8.615131,  1.018188,  3.313814 )
  WF centre  196  (  8.615124,  1.018178,  3.313822 )
  WF centre  197  ( 12.061186,  0.989734, -0.083282 )
  WF centre  198  ( 12.061193,  0.989728, -0.083279 )
  WF centre  199  ( 12.061172,  0.975772,  0.040556 )
  WF centre  200  ( 12.061175,  0.975772,  0.040553 )
  WF centre  201  ( 12.061150,  1.018236,  0.040454 )
  WF centre  202  ( 12.061148,  1.018234,  0.040458 )
  WF centre  203  ( 12.061186,  0.989734,  3.437587 )
  WF centre  204  ( 12.061187,  0.989732,  3.437584 )
  WF centre  205  ( 12.061173,  0.975772,  3.313747 )
  WF centre  206  ( 12.061176,  0.975772,  3.313752 )
  WF centre  207  ( 12.061150,  1.018236,  3.313850 )
  WF centre  208  ( 12.061149,  1.018232,  3.313848 )
  WF centre  209  ( 10.338187,  3.974146, -0.083299 )
  WF centre  210  ( 10.338194,  3.974146, -0.083302 )
  WF centre  211  ( 10.338175,  3.960176,  0.040614 )
  WF centre  212  ( 10.338181,  3.960184,  0.040604 )
  WF centre  213  ( 10.338091,  4.002540,  0.040498 )
  WF centre  214  ( 10.338089,  4.002538,  0.040496 )
  WF centre  215  ( 10.338185,  3.974151,  3.437603 )
  WF centre  216  ( 10.338189,  3.974151,  3.437606 )
  WF centre  217  ( 10.338176,  3.960177,  3.313690 )
  WF centre  218  ( 10.338183,  3.960184,  3.313700 )
  WF centre  219  ( 10.338091,  4.002539,  3.313807 )
  WF centre  220  ( 10.338089,  4.002536,  3.313807 )
  WF centre  221  (  8.615170,  6.958534, -0.083302 )
  WF centre  222  (  8.615166,  6.958535, -0.083301 )
  WF centre  223  (  8.615070,  6.944529,  0.040594 )
  WF centre  224  (  8.615071,  6.944531,  0.040597 )
  WF centre  225  (  8.615128,  6.986930,  0.040508 )
  WF centre  226  (  8.615128,  6.986929,  0.040509 )
  WF centre  227  (  8.615162,  6.958544,  3.437605 )
  WF centre  228  (  8.615163,  6.958539,  3.437605 )
  WF centre  229  (  8.615073,  6.944529,  3.313711 )
  WF centre  230  (  8.615072,  6.944531,  3.313707 )
  WF centre  231  (  8.615129,  6.986927,  3.313796 )
  WF centre  232  (  8.615128,  6.986927,  3.313793 )
  WF centre  233  (  6.892089,  9.942874, -0.083278 )
  WF centre  234  (  6.892089,  9.942874, -0.083281 )
  WF centre  235  (  6.892079,  9.928857,  0.040575 )
  WF centre  236  (  6.892089,  9.928857,  0.040567 )
  WF centre  237  (  6.892087,  9.971362,  0.040433 )
  WF centre  238  (  6.892086,  9.971360,  0.040428 )
  WF centre  239  (  6.892085,  9.942883,  3.437583 )
  WF centre  240  (  6.892083,  9.942877,  3.437585 )
  WF centre  241  (  6.892080,  9.928857,  3.313729 )
  WF centre  242  (  6.892091,  9.928857,  3.313739 )
  WF centre  243  (  6.892087,  9.971360,  3.313872 )
  WF centre  244  (  6.892087,  9.971359,  3.313875 )
  WF centre  245  (  3.446021,  9.942828, -0.083281 )
  WF centre  246  (  3.446027,  9.942829, -0.083280 )
  WF centre  247  (  3.446085,  9.928894,  0.040529 )
  WF centre  248  (  3.446084,  9.928897,  0.040513 )
  WF centre  249  (  3.446054,  9.971316,  0.040453 )
  WF centre  250  (  3.446049,  9.971317,  0.040459 )
  WF centre  251  (  3.446022,  9.942833,  3.437586 )
  WF centre  252  (  3.446024,  9.942833,  3.437584 )
  WF centre  253  (  3.446086,  9.928894,  3.313775 )
  WF centre  254  (  3.446085,  9.928897,  3.313791 )
  WF centre  255  (  3.446054,  9.971315,  3.313849 )
  WF centre  256  (  3.446049,  9.971316,  3.313845 )
  WF centre  257  ( -0.000006,  9.942754, -0.083291 )
  WF centre  258  (  0.000005,  9.942752, -0.083293 )
  WF centre  259  ( -0.000003,  9.928947,  0.040470 )
  WF centre  260  (  0.000006,  9.928950,  0.040463 )
  WF centre  261  (  0.000001,  9.971230,  0.040294 )
  WF centre  262  (  0.000003,  9.971231,  0.040304 )
  WF centre  263  ( -0.000006,  9.942755,  3.437594 )
  WF centre  264  (  0.000004,  9.942756,  3.437597 )
  WF centre  265  ( -0.000003,  9.928947,  3.313836 )
  WF centre  266  (  0.000007,  9.928950,  3.313842 )
  WF centre  267  (  0.000001,  9.971229,  3.314008 )
  WF centre  268  (  0.000003,  9.971230,  3.313999 )
  WF centre  269  ( -3.446022,  9.942827, -0.083280 )
  WF centre  270  ( -3.446025,  9.942828, -0.083281 )
  WF centre  271  ( -3.446089,  9.928896,  0.040517 )
  WF centre  272  ( -3.446089,  9.928897,  0.040516 )
  WF centre  273  ( -3.446051,  9.971315,  0.040446 )
  WF centre  274  ( -3.446056,  9.971316,  0.040458 )
  WF centre  275  ( -3.446028,  9.942831,  3.437584 )
  WF centre  276  ( -3.446025,  9.942830,  3.437585 )
  WF centre  277  ( -3.446087,  9.928896,  3.313789 )
  WF centre  278  ( -3.446089,  9.928897,  3.313789 )
  WF centre  279  ( -3.446051,  9.971313,  3.313858 )
  WF centre  280  ( -3.446056,  9.971315,  3.313845 )
  WF centre  281  (  6.892085,  3.974132, -0.083311 )
  WF centre  282  (  6.892090,  3.974133, -0.083310 )
  WF centre  283  (  6.892082,  3.960212,  0.040623 )
  WF centre  284  (  6.892083,  3.960212,  0.040622 )
  WF centre  285  (  6.892086,  4.002510,  0.040511 )
  WF centre  286  (  6.892083,  4.002509,  0.040511 )
  WF centre  287  (  6.892079,  3.974141,  3.437614 )
  WF centre  288  (  6.892087,  3.974135,  3.437614 )
  WF centre  289  (  6.892084,  3.960212,  3.313681 )
  WF centre  290  (  6.892084,  3.960212,  3.313681 )
  WF centre  291  (  6.892086,  4.002507,  3.313795 )
  WF centre  292  (  6.892083,  4.002508,  3.313792 )
  WF centre  293  (  5.169007,  6.958532, -0.083303 )
  WF centre  294  (  5.169009,  6.958534, -0.083302 )
  WF centre  295  (  5.169095,  6.944531,  0.040598 )
  WF centre  296  (  5.169103,  6.944530,  0.040595 )
  WF centre  297  (  5.169043,  6.986926,  0.040508 )
  WF centre  298  (  5.169044,  6.986927,  0.040507 )
  WF centre  299  (  5.169003,  6.958540,  3.437607 )
  WF centre  300  (  5.169006,  6.958540,  3.437606 )
  WF centre  301  (  5.169096,  6.944532,  3.313705 )
  WF centre  302  (  5.169104,  6.944530,  3.313711 )
  WF centre  303  (  5.169043,  6.986924,  3.313795 )
  WF centre  304  (  5.169044,  6.986925,  3.313796 )
  WF centre  305  (  1.722946,  6.958519, -0.083289 )
  WF centre  306  (  1.722959,  6.958517, -0.083285 )
  WF centre  307  (  1.723005,  6.944579,  0.040421 )
  WF centre  308  (  1.723006,  6.944579,  0.040422 )
  WF centre  309  (  1.723030,  6.986886,  0.040332 )
  WF centre  310  (  1.723024,  6.986892,  0.040346 )
  WF centre  311  (  1.722954,  6.958523,  3.437593 )
  WF centre  312  (  1.722955,  6.958525,  3.437589 )
  WF centre  313  (  1.723002,  6.944579,  3.313883 )
  WF centre  314  (  1.723007,  6.944579,  3.313883 )
  WF centre  315  (  1.723030,  6.986885,  3.313969 )
  WF centre  316  (  1.723024,  6.986889,  3.313957 )
  WF centre  317  (  3.445984,  3.974147, -0.083301 )
  WF centre  318  (  3.445985,  3.974145, -0.083300 )
  WF centre  319  (  3.445991,  3.960184,  0.040609 )
  WF centre  320  (  3.446000,  3.960178,  0.040612 )
  WF centre  321  (  3.446084,  4.002538,  0.040495 )
  WF centre  322  (  3.446083,  4.002537,  0.040493 )
  WF centre  323  (  3.445979,  3.974149,  3.437605 )
  WF centre  324  (  3.445982,  3.974150,  3.437604 )
  WF centre  325  (  3.445992,  3.960185,  3.313696 )
  WF centre  326  (  3.446001,  3.960178,  3.313694 )
  WF centre  327  (  3.446083,  4.002537,  3.313808 )
  WF centre  328  (  3.446083,  4.002535,  3.313811 )
  WF centre  329  ( -0.000001,  3.974136, -0.083277 )
  WF centre  330  ( -0.000001,  3.974134, -0.083276 )
  WF centre  331  ( -0.000004,  3.960159,  0.040593 )
  WF centre  332  ( -0.000004,  3.960161,  0.040587 )
  WF centre  333  (  0.000002,  4.002522,  0.040376 )
  WF centre  334  ( -0.000002,  4.002522,  0.040387 )
  WF centre  335  ( -0.000004,  3.974136,  3.437581 )
  WF centre  336  ( -0.000003,  3.974138,  3.437580 )
  WF centre  337  ( -0.000004,  3.960159,  3.313712 )
  WF centre  338  ( -0.000004,  3.960162,  3.313720 )
  WF centre  339  (  0.000003,  4.002521,  3.313926 )
  WF centre  340  ( -0.000002,  4.002521,  3.313917 )
  WF centre  341  ( -1.722959,  6.958520, -0.083286 )
  WF centre  342  ( -1.722952,  6.958514, -0.083288 )
  WF centre  343  ( -1.723010,  6.944578,  0.040417 )
  WF centre  344  ( -1.723004,  6.944580,  0.040424 )
  WF centre  345  ( -1.723025,  6.986889,  0.040337 )
  WF centre  346  ( -1.723028,  6.986881,  0.040327 )
  WF centre  347  ( -1.722958,  6.958524,  3.437590 )
  WF centre  348  ( -1.722956,  6.958520,  3.437592 )
  WF centre  349  ( -1.723011,  6.944578,  3.313888 )
  WF centre  350  ( -1.723004,  6.944580,  3.313880 )
  WF centre  351  ( -1.723024,  6.986888,  3.313966 )
  WF centre  352  ( -1.723029,  6.986879,  3.313976 )
 ------------------------------------------------------------------------------
 

 Wannier centres written to file nbse2.noncolin_centres.xyz
  
  Omega Invariant:   1-s^2 =   684.153702879 (Ang^2)
                   -2log s =   704.068403614 (Ang^2)
                    acos^2 =   697.284613271 (Ang^2)
 Time for wannierise          182.452 (sec)

 Writing checkpoint file nbse2.noncolin.chk... done

 *---------------------------------------------------------------------------*
 |                               PLOTTING                                    |
 *---------------------------------------------------------------------------*
 
    9 lattice points in Wigner-Seitz supercell:

      vector  -1  -2   0   degeneracy:  1
      vector  -1  -1   0   degeneracy:  1
      vector  -1   0   0   degeneracy:  1
      vector   0  -1   0   degeneracy:  1
      vector   0   0   0   degeneracy:  1
      vector   0   1   0   degeneracy:  1
      vector   1   0   0   degeneracy:  1
      vector   1   1   0   degeneracy:  1
      vector   1   2   0   degeneracy:  1
  tot =        9.000
  mp_grid product =            9
 
 Calculating interpolated band-structure
 
 Time to calculate interpolated band structure      42.259 (sec)
 
 Time for plotting             45.049 (sec)
 Total Execution Time         377.094 (sec)

 *===========================================================================*
 |                             TIMING INFORMATION                            |
 *===========================================================================*
 |    Tag                                                Ncalls      Time (s)|
 |---------------------------------------------------------------------------|
 |kmesh: get                                        :         1         0.011|
 |overlap: allocate                                 :         1         0.009|
 |overlap: read                                     :         1        24.702|
 |dis: main                                         :         1       124.786|
 |wann: main                                        :         1       182.452|
 |plot: main                                        :         1        45.049|
 *---------------------------------------------------------------------------*
 
 All done: wannier90 exiting
