 
             +---------------------------------------------------+
             |                                                   |
             |                   WANNIER90                       |
             |                                                   |
             +---------------------------------------------------+
             |                                                   |
             |        Welcome to the Maximally-Localized         |
             |        Generalized Wannier Functions code         |
             |            http://www.wannier.org                 |
             |                                                   |
             |                                                   |
             |  Wannier90 Developer Group:                       |
             |    Giovanni Pizzi    (EPFL)                       |
             |    Valerio Vitale    (Cambridge)                  |
             |    David Vanderbilt  (Rutgers University)         |
             |    Nicola Marzari    (EPFL)                       |
             |    Ivo Souza         (Universidad del Pais Vasco) |
             |    Arash A. Mostofi  (Imperial College London)    |
             |    Jonathan R. Yates (University of Oxford)       |
             |                                                   |
             |  For the full list of Wannier90 3.x authors,      |
             |  please check the code documentation and the      |
             |  README on the GitHub page of the code            |
             |                                                   |
             |                                                   |
             |  Please cite                                      |
             |                                                   |
             |  [ref] "Wannier90 as a community code:            |
             |        new features and applications",            |
             |        G. Pizzi et al., J. Phys. Cond. Matt. 32,  |
             |        165902 (2020).                             |
             |        http://doi.org/10.1088/1361-648X/ab51ff    |
             |                                                   |
             |  in any publications arising from the use of      |
             |  this code. For the method please cite            |
             |                                                   |
             |  [ref] "Maximally Localized Generalised Wannier   |
             |         Functions for Composite Energy Bands"     |
             |         N. Marzari and D. Vanderbilt              |
             |         Phys. Rev. B 56 12847 (1997)              |
             |                                                   |
             |  [ref] "Maximally Localized Wannier Functions     |
             |         for Entangled Energy Bands"               |
             |         I. Souza, N. Marzari and D. Vanderbilt    |
             |         Phys. Rev. B 65 035109 (2001)             |
             |                                                   |
             |                                                   |
             | Copyright (c) 1996-2020                           |
             |        The Wannier90 Developer Group and          |
             |        individual contributors                    |
             |                                                   |
             |      Release: 3.1.0        5th March    2020      |
             |                                                   |
             | This program is free software; you can            |
             | redistribute it and/or modify it under the terms  |
             | of the GNU General Public License as published by |
             | the Free Software Foundation; either version 2 of |
             | the License, or (at your option) any later version|
             |                                                   |
             | This program is distributed in the hope that it   |
             | will be useful, but WITHOUT ANY WARRANTY; without |
             | even the implied warranty of MERCHANTABILITY or   |
             | FITNESS FOR A PARTICULAR PURPOSE. See the GNU     |
             | General Public License for more details.          |
             |                                                   |
             | You should have received a copy of the GNU General|
             | Public License along with this program; if not,   |
             | write to the Free Software Foundation, Inc.,      |
             | 675 Mass Ave, Cambridge, MA 02139, USA.           |
             |                                                   |
             +---------------------------------------------------+
             |    Execution started on 12Jul2023 at 13:28:59     |
             +---------------------------------------------------+
 
 ******************************************************************************
 * -> Using CODATA 2006 constant values                                       *
 *    (http://physics.nist.gov/cuu/Constants/index.html)                      *
 * -> Using Bohr value from CODATA                                            *
 ******************************************************************************
 

 Running in parallel on 160 CPUs

 
                                    ------
                                    SYSTEM
                                    ------
 
                              Lattice Vectors (Ang)
                    a_1    13.784171   0.000000   0.000000
                    a_2    -6.892085  11.937442   0.000000
                    a_3     0.000000   0.000000  23.631430
 
                   Unit Cell Volume:    3888.49848  (Ang^3)
 
                        Reciprocal-Space Vectors (Ang^-1)
                    b_1     0.455826   0.263171   0.000000
                    b_2     0.000000   0.526343   0.000000
                    b_3     0.000000   0.000000   0.265883
  
 *----------------------------------------------------------------------------*
 |   Site       Fractional Coordinate          Cartesian Coordinate (Ang)     |
 +----------------------------------------------------------------------------+
 | Cr   1   0.75000   0.75000   0.19894   |    5.16906   8.95308   4.70129    |
 | Nb   1   0.00020   0.00578   0.07199   |   -0.03708   0.06902   1.70111    |
 | Nb   2   0.24938  -0.00031   0.07119   |    3.43968  -0.00367   1.68227    |
 | Nb   3   0.50031  -0.00031   0.07119   |    6.89845  -0.00367   1.68227    |
 | Nb   4   0.75558   0.00578   0.07199   |   10.37521   0.06902   1.70111    |
 | Nb   5   0.75523   0.25262   0.07109   |    8.66921   3.01560   1.67987    |
 | Nb   6   0.75558   0.49980   0.07199   |    6.97040   5.96632   1.70111    |
 | Nb   7   0.75000   0.75000   0.07307   |    5.16906   8.95308   1.72677    |
 | Nb   8   0.49422   0.74442   0.07199   |    1.68179   8.88646   1.70111    |
 | Nb   9   0.24738   0.74477   0.07109   |   -1.72302   8.89061   1.67987    |
 | Nb  10   0.00020   0.74442   0.07199   |   -5.12783   8.88646   1.70111    |
 | Nb  11   0.50031   0.25062   0.07119   |    5.16906   2.99171   1.68227    |
 | Nb  12   0.49422   0.49980   0.07199   |    3.36773   5.96632   1.70111    |
 | Nb  13   0.24882   0.49941   0.07138   |   -0.01216   5.96170   1.68685    |
 | Nb  14   0.24738   0.25262   0.07109   |    1.66892   3.01560   1.67987    |
 | Nb  15   0.00059   0.25118   0.07138   |   -1.72302   2.99840   1.68685    |
 | Nb  16   0.00059   0.49941   0.07138   |   -3.43388   5.96170   1.68685    |
 | Se   1   0.16663   0.08376   0.00021   |    1.71959   0.99984   0.00504    |
 | Se   2   0.16836   0.08524   0.14254   |    1.73320   1.01750   3.36834    |
 | Se   3   0.41667   0.08333  -0.00020   |    5.16906   0.99479  -0.00467    |
 | Se   4   0.41667   0.08333   0.14264   |    5.16906   0.99479   3.37083    |
 | Se   5   0.66713   0.08376   0.00021   |    8.61853   0.99984   0.00504    |
 | Se   6   0.66688   0.08524   0.14254   |    8.60493   1.01750   3.36834    |
 | Se   7   0.91724   0.08448  -0.00089   |   12.06115   1.00843  -0.02099    |
 | Se   8   0.91814   0.08629   0.14466   |   12.06115   1.03006   3.41854    |
 | Se   9   0.91800   0.33400  -0.00103   |   10.35193   3.98712  -0.02439    |
 | Se  10   0.91783   0.33391   0.14361   |   10.35012   3.98607   3.39372    |
 | Se  11   0.91724   0.58276  -0.00089   |    8.62693   6.95668  -0.02099    |
 | Se  12   0.91814   0.58186   0.14466   |    8.64566   6.94587   3.41854    |
 | Se  13   0.91786   0.83393   0.00330   |    6.90441   9.95498   0.07806    |
 | Se  14   0.92475   0.83738   0.14404   |    6.97568   9.99613   3.40392    |
 | Se  15   0.66607   0.83393   0.00330   |    3.43372   9.95498   0.07806    |
 | Se  16   0.66262   0.83738   0.14404   |    3.36245   9.99613   3.40392    |
 | Se  17   0.41624   0.83287   0.00021   |   -0.00266   9.94238   0.00504    |
 | Se  18   0.41476   0.83312   0.14254   |   -0.02476   9.94533   3.36834    |
 | Se  19   0.16663   0.83287   0.00021   |   -3.44338   9.94238   0.00504    |
 | Se  20   0.16836   0.83312   0.14254   |   -3.42128   9.94533   3.36834    |
 | Se  21   0.66713   0.33337   0.00021   |    6.89817   3.97959   0.00504    |
 | Se  22   0.66688   0.33164   0.14254   |    6.90666   3.95898   3.36834    |
 | Se  23   0.66607   0.58214   0.00330   |    5.16906   6.94928   0.07806    |
 | Se  24   0.66262   0.57525   0.14404   |    5.16906   6.86698   3.40392    |
 | Se  25   0.41552   0.58276  -0.00089   |    1.71120   6.95668  -0.02099    |
 | Se  26   0.41371   0.58186   0.14466   |    1.69247   6.94587   3.41854    |
 | Se  27   0.41624   0.33337   0.00021   |    3.43996   3.97959   0.00504    |
 | Se  28   0.41476   0.33164   0.14254   |    3.43146   3.95898   3.36834    |
 | Se  29   0.16600   0.33400  -0.00103   |   -0.01380   3.98712  -0.02439    |
 | Se  30   0.16609   0.33391   0.14361   |   -0.01199   3.98607   3.39372    |
 | Se  31   0.16600   0.58200  -0.00103   |   -1.72302   6.94757  -0.02439    |
 | Se  32   0.16609   0.58217   0.14361   |   -1.72302   6.94966   3.39372    |
 *----------------------------------------------------------------------------*
                                -----------
                                PROJECTIONS
                                -----------
  
 +----------------------------------------------------------------------------+
 |     Frac. Coord.   l mr  r        z-axis               x-axis          Z/a |
 +----------------------------------------------------------------------------+
 |  0.75  0.75  0.20  2  1  1  0.000  0.000  1.000  1.000  0.000  0.000   1.0 |
 |  0.75  0.75  0.20  2  2  1  0.000  0.000  1.000  1.000  0.000  0.000   1.0 |
 |  0.75  0.75  0.20  2  3  1  0.000  0.000  1.000  1.000  0.000  0.000   1.0 |
 |  0.75  0.75  0.20  2  4  1  0.000  0.000  1.000  1.000  0.000  0.000   1.0 |
 |  0.75  0.75  0.20  2  5  1  0.000  0.000  1.000  1.000  0.000  0.000   1.0 |
 |  0.00  0.01  0.07  2  1  1  0.000  0.000  1.000  1.000  0.000  0.000   1.0 |
 |  0.00  0.01  0.07  2  2  1  0.000  0.000  1.000  1.000  0.000  0.000   1.0 |
 |  0.00  0.01  0.07  2  3  1  0.000  0.000  1.000  1.000  0.000  0.000   1.0 |
 |  0.00  0.01  0.07  2  4  1  0.000  0.000  1.000  1.000  0.000  0.000   1.0 |
 |  0.00  0.01  0.07  2  5  1  0.000  0.000  1.000  1.000  0.000  0.000   1.0 |
 |  0.25 -0.00  0.07  2  1  1  0.000  0.000  1.000  1.000  0.000  0.000   1.0 |
 |  0.25 -0.00  0.07  2  2  1  0.000  0.000  1.000  1.000  0.000  0.000   1.0 |
 |  0.25 -0.00  0.07  2  3  1  0.000  0.000  1.000  1.000  0.000  0.000   1.0 |
 |  0.25 -0.00  0.07  2  4  1  0.000  0.000  1.000  1.000  0.000  0.000   1.0 |
 |  0.25 -0.00  0.07  2  5  1  0.000  0.000  1.000  1.000  0.000  0.000   1.0 |
 |  0.50 -0.00  0.07  2  1  1  0.000  0.000  1.000  1.000  0.000  0.000   1.0 |
 |  0.50 -0.00  0.07  2  2  1  0.000  0.000  1.000  1.000  0.000  0.000   1.0 |
 |  0.50 -0.00  0.07  2  3  1  0.000  0.000  1.000  1.000  0.000  0.000   1.0 |
 |  0.50 -0.00  0.07  2  4  1  0.000  0.000  1.000  1.000  0.000  0.000   1.0 |
 |  0.50 -0.00  0.07  2  5  1  0.000  0.000  1.000  1.000  0.000  0.000   1.0 |
 |  0.76  0.01  0.07  2  1  1  0.000  0.000  1.000  1.000  0.000  0.000   1.0 |
 |  0.76  0.01  0.07  2  2  1  0.000  0.000  1.000  1.000  0.000  0.000   1.0 |
 |  0.76  0.01  0.07  2  3  1  0.000  0.000  1.000  1.000  0.000  0.000   1.0 |
 |  0.76  0.01  0.07  2  4  1  0.000  0.000  1.000  1.000  0.000  0.000   1.0 |
 |  0.76  0.01  0.07  2  5  1  0.000  0.000  1.000  1.000  0.000  0.000   1.0 |
 |  0.76  0.25  0.07  2  1  1  0.000  0.000  1.000  1.000  0.000  0.000   1.0 |
 |  0.76  0.25  0.07  2  2  1  0.000  0.000  1.000  1.000  0.000  0.000   1.0 |
 |  0.76  0.25  0.07  2  3  1  0.000  0.000  1.000  1.000  0.000  0.000   1.0 |
 |  0.76  0.25  0.07  2  4  1  0.000  0.000  1.000  1.000  0.000  0.000   1.0 |
 |  0.76  0.25  0.07  2  5  1  0.000  0.000  1.000  1.000  0.000  0.000   1.0 |
 |  0.76  0.50  0.07  2  1  1  0.000  0.000  1.000  1.000  0.000  0.000   1.0 |
 |  0.76  0.50  0.07  2  2  1  0.000  0.000  1.000  1.000  0.000  0.000   1.0 |
 |  0.76  0.50  0.07  2  3  1  0.000  0.000  1.000  1.000  0.000  0.000   1.0 |
 |  0.76  0.50  0.07  2  4  1  0.000  0.000  1.000  1.000  0.000  0.000   1.0 |
 |  0.76  0.50  0.07  2  5  1  0.000  0.000  1.000  1.000  0.000  0.000   1.0 |
 |  0.75  0.75  0.07  2  1  1  0.000  0.000  1.000  1.000  0.000  0.000   1.0 |
 |  0.75  0.75  0.07  2  2  1  0.000  0.000  1.000  1.000  0.000  0.000   1.0 |
 |  0.75  0.75  0.07  2  3  1  0.000  0.000  1.000  1.000  0.000  0.000   1.0 |
 |  0.75  0.75  0.07  2  4  1  0.000  0.000  1.000  1.000  0.000  0.000   1.0 |
 |  0.75  0.75  0.07  2  5  1  0.000  0.000  1.000  1.000  0.000  0.000   1.0 |
 |  0.49  0.74  0.07  2  1  1  0.000  0.000  1.000  1.000  0.000  0.000   1.0 |
 |  0.49  0.74  0.07  2  2  1  0.000  0.000  1.000  1.000  0.000  0.000   1.0 |
 |  0.49  0.74  0.07  2  3  1  0.000  0.000  1.000  1.000  0.000  0.000   1.0 |
 |  0.49  0.74  0.07  2  4  1  0.000  0.000  1.000  1.000  0.000  0.000   1.0 |
 |  0.49  0.74  0.07  2  5  1  0.000  0.000  1.000  1.000  0.000  0.000   1.0 |
 |  0.25  0.74  0.07  2  1  1  0.000  0.000  1.000  1.000  0.000  0.000   1.0 |
 |  0.25  0.74  0.07  2  2  1  0.000  0.000  1.000  1.000  0.000  0.000   1.0 |
 |  0.25  0.74  0.07  2  3  1  0.000  0.000  1.000  1.000  0.000  0.000   1.0 |
 |  0.25  0.74  0.07  2  4  1  0.000  0.000  1.000  1.000  0.000  0.000   1.0 |
 |  0.25  0.74  0.07  2  5  1  0.000  0.000  1.000  1.000  0.000  0.000   1.0 |
 |  0.00  0.74  0.07  2  1  1  0.000  0.000  1.000  1.000  0.000  0.000   1.0 |
 |  0.00  0.74  0.07  2  2  1  0.000  0.000  1.000  1.000  0.000  0.000   1.0 |
 |  0.00  0.74  0.07  2  3  1  0.000  0.000  1.000  1.000  0.000  0.000   1.0 |
 |  0.00  0.74  0.07  2  4  1  0.000  0.000  1.000  1.000  0.000  0.000   1.0 |
 |  0.00  0.74  0.07  2  5  1  0.000  0.000  1.000  1.000  0.000  0.000   1.0 |
 |  0.50  0.25  0.07  2  1  1  0.000  0.000  1.000  1.000  0.000  0.000   1.0 |
 |  0.50  0.25  0.07  2  2  1  0.000  0.000  1.000  1.000  0.000  0.000   1.0 |
 |  0.50  0.25  0.07  2  3  1  0.000  0.000  1.000  1.000  0.000  0.000   1.0 |
 |  0.50  0.25  0.07  2  4  1  0.000  0.000  1.000  1.000  0.000  0.000   1.0 |
 |  0.50  0.25  0.07  2  5  1  0.000  0.000  1.000  1.000  0.000  0.000   1.0 |
 |  0.49  0.50  0.07  2  1  1  0.000  0.000  1.000  1.000  0.000  0.000   1.0 |
 |  0.49  0.50  0.07  2  2  1  0.000  0.000  1.000  1.000  0.000  0.000   1.0 |
 |  0.49  0.50  0.07  2  3  1  0.000  0.000  1.000  1.000  0.000  0.000   1.0 |
 |  0.49  0.50  0.07  2  4  1  0.000  0.000  1.000  1.000  0.000  0.000   1.0 |
 |  0.49  0.50  0.07  2  5  1  0.000  0.000  1.000  1.000  0.000  0.000   1.0 |
 |  0.25  0.50  0.07  2  1  1  0.000  0.000  1.000  1.000  0.000  0.000   1.0 |
 |  0.25  0.50  0.07  2  2  1  0.000  0.000  1.000  1.000  0.000  0.000   1.0 |
 |  0.25  0.50  0.07  2  3  1  0.000  0.000  1.000  1.000  0.000  0.000   1.0 |
 |  0.25  0.50  0.07  2  4  1  0.000  0.000  1.000  1.000  0.000  0.000   1.0 |
 |  0.25  0.50  0.07  2  5  1  0.000  0.000  1.000  1.000  0.000  0.000   1.0 |
 |  0.25  0.25  0.07  2  1  1  0.000  0.000  1.000  1.000  0.000  0.000   1.0 |
 |  0.25  0.25  0.07  2  2  1  0.000  0.000  1.000  1.000  0.000  0.000   1.0 |
 |  0.25  0.25  0.07  2  3  1  0.000  0.000  1.000  1.000  0.000  0.000   1.0 |
 |  0.25  0.25  0.07  2  4  1  0.000  0.000  1.000  1.000  0.000  0.000   1.0 |
 |  0.25  0.25  0.07  2  5  1  0.000  0.000  1.000  1.000  0.000  0.000   1.0 |
 |  0.00  0.25  0.07  2  1  1  0.000  0.000  1.000  1.000  0.000  0.000   1.0 |
 |  0.00  0.25  0.07  2  2  1  0.000  0.000  1.000  1.000  0.000  0.000   1.0 |
 |  0.00  0.25  0.07  2  3  1  0.000  0.000  1.000  1.000  0.000  0.000   1.0 |
 |  0.00  0.25  0.07  2  4  1  0.000  0.000  1.000  1.000  0.000  0.000   1.0 |
 |  0.00  0.25  0.07  2  5  1  0.000  0.000  1.000  1.000  0.000  0.000   1.0 |
 |  0.00  0.50  0.07  2  1  1  0.000  0.000  1.000  1.000  0.000  0.000   1.0 |
 |  0.00  0.50  0.07  2  2  1  0.000  0.000  1.000  1.000  0.000  0.000   1.0 |
 |  0.00  0.50  0.07  2  3  1  0.000  0.000  1.000  1.000  0.000  0.000   1.0 |
 |  0.00  0.50  0.07  2  4  1  0.000  0.000  1.000  1.000  0.000  0.000   1.0 |
 |  0.00  0.50  0.07  2  5  1  0.000  0.000  1.000  1.000  0.000  0.000   1.0 |
 |  0.17  0.08  0.00  1  1  1  0.000  0.000  1.000  1.000  0.000  0.000   1.0 |
 |  0.17  0.08  0.00  1  2  1  0.000  0.000  1.000  1.000  0.000  0.000   1.0 |
 |  0.17  0.08  0.00  1  3  1  0.000  0.000  1.000  1.000  0.000  0.000   1.0 |
 |  0.17  0.09  0.14  1  1  1  0.000  0.000  1.000  1.000  0.000  0.000   1.0 |
 |  0.17  0.09  0.14  1  2  1  0.000  0.000  1.000  1.000  0.000  0.000   1.0 |
 |  0.17  0.09  0.14  1  3  1  0.000  0.000  1.000  1.000  0.000  0.000   1.0 |
 |  0.42  0.08 -0.00  1  1  1  0.000  0.000  1.000  1.000  0.000  0.000   1.0 |
 |  0.42  0.08 -0.00  1  2  1  0.000  0.000  1.000  1.000  0.000  0.000   1.0 |
 |  0.42  0.08 -0.00  1  3  1  0.000  0.000  1.000  1.000  0.000  0.000   1.0 |
 |  0.42  0.08  0.14  1  1  1  0.000  0.000  1.000  1.000  0.000  0.000   1.0 |
 |  0.42  0.08  0.14  1  2  1  0.000  0.000  1.000  1.000  0.000  0.000   1.0 |
 |  0.42  0.08  0.14  1  3  1  0.000  0.000  1.000  1.000  0.000  0.000   1.0 |
 |  0.67  0.08  0.00  1  1  1  0.000  0.000  1.000  1.000  0.000  0.000   1.0 |
 |  0.67  0.08  0.00  1  2  1  0.000  0.000  1.000  1.000  0.000  0.000   1.0 |
 |  0.67  0.08  0.00  1  3  1  0.000  0.000  1.000  1.000  0.000  0.000   1.0 |
 |  0.67  0.09  0.14  1  1  1  0.000  0.000  1.000  1.000  0.000  0.000   1.0 |
 |  0.67  0.09  0.14  1  2  1  0.000  0.000  1.000  1.000  0.000  0.000   1.0 |
 |  0.67  0.09  0.14  1  3  1  0.000  0.000  1.000  1.000  0.000  0.000   1.0 |
 |  0.92  0.08 -0.00  1  1  1  0.000  0.000  1.000  1.000  0.000  0.000   1.0 |
 |  0.92  0.08 -0.00  1  2  1  0.000  0.000  1.000  1.000  0.000  0.000   1.0 |
 |  0.92  0.08 -0.00  1  3  1  0.000  0.000  1.000  1.000  0.000  0.000   1.0 |
 |  0.92  0.09  0.14  1  1  1  0.000  0.000  1.000  1.000  0.000  0.000   1.0 |
 |  0.92  0.09  0.14  1  2  1  0.000  0.000  1.000  1.000  0.000  0.000   1.0 |
 |  0.92  0.09  0.14  1  3  1  0.000  0.000  1.000  1.000  0.000  0.000   1.0 |
 |  0.92  0.33 -0.00  1  1  1  0.000  0.000  1.000  1.000  0.000  0.000   1.0 |
 |  0.92  0.33 -0.00  1  2  1  0.000  0.000  1.000  1.000  0.000  0.000   1.0 |
 |  0.92  0.33 -0.00  1  3  1  0.000  0.000  1.000  1.000  0.000  0.000   1.0 |
 |  0.92  0.33  0.14  1  1  1  0.000  0.000  1.000  1.000  0.000  0.000   1.0 |
 |  0.92  0.33  0.14  1  2  1  0.000  0.000  1.000  1.000  0.000  0.000   1.0 |
 |  0.92  0.33  0.14  1  3  1  0.000  0.000  1.000  1.000  0.000  0.000   1.0 |
 |  0.92  0.58 -0.00  1  1  1  0.000  0.000  1.000  1.000  0.000  0.000   1.0 |
 |  0.92  0.58 -0.00  1  2  1  0.000  0.000  1.000  1.000  0.000  0.000   1.0 |
 |  0.92  0.58 -0.00  1  3  1  0.000  0.000  1.000  1.000  0.000  0.000   1.0 |
 |  0.92  0.58  0.14  1  1  1  0.000  0.000  1.000  1.000  0.000  0.000   1.0 |
 |  0.92  0.58  0.14  1  2  1  0.000  0.000  1.000  1.000  0.000  0.000   1.0 |
 |  0.92  0.58  0.14  1  3  1  0.000  0.000  1.000  1.000  0.000  0.000   1.0 |
 |  0.92  0.83  0.00  1  1  1  0.000  0.000  1.000  1.000  0.000  0.000   1.0 |
 |  0.92  0.83  0.00  1  2  1  0.000  0.000  1.000  1.000  0.000  0.000   1.0 |
 |  0.92  0.83  0.00  1  3  1  0.000  0.000  1.000  1.000  0.000  0.000   1.0 |
 |  0.92  0.84  0.14  1  1  1  0.000  0.000  1.000  1.000  0.000  0.000   1.0 |
 |  0.92  0.84  0.14  1  2  1  0.000  0.000  1.000  1.000  0.000  0.000   1.0 |
 |  0.92  0.84  0.14  1  3  1  0.000  0.000  1.000  1.000  0.000  0.000   1.0 |
 |  0.67  0.83  0.00  1  1  1  0.000  0.000  1.000  1.000  0.000  0.000   1.0 |
 |  0.67  0.83  0.00  1  2  1  0.000  0.000  1.000  1.000  0.000  0.000   1.0 |
 |  0.67  0.83  0.00  1  3  1  0.000  0.000  1.000  1.000  0.000  0.000   1.0 |
 |  0.66  0.84  0.14  1  1  1  0.000  0.000  1.000  1.000  0.000  0.000   1.0 |
 |  0.66  0.84  0.14  1  2  1  0.000  0.000  1.000  1.000  0.000  0.000   1.0 |
 |  0.66  0.84  0.14  1  3  1  0.000  0.000  1.000  1.000  0.000  0.000   1.0 |
 |  0.42  0.83  0.00  1  1  1  0.000  0.000  1.000  1.000  0.000  0.000   1.0 |
 |  0.42  0.83  0.00  1  2  1  0.000  0.000  1.000  1.000  0.000  0.000   1.0 |
 |  0.42  0.83  0.00  1  3  1  0.000  0.000  1.000  1.000  0.000  0.000   1.0 |
 |  0.41  0.83  0.14  1  1  1  0.000  0.000  1.000  1.000  0.000  0.000   1.0 |
 |  0.41  0.83  0.14  1  2  1  0.000  0.000  1.000  1.000  0.000  0.000   1.0 |
 |  0.41  0.83  0.14  1  3  1  0.000  0.000  1.000  1.000  0.000  0.000   1.0 |
 |  0.17  0.83  0.00  1  1  1  0.000  0.000  1.000  1.000  0.000  0.000   1.0 |
 |  0.17  0.83  0.00  1  2  1  0.000  0.000  1.000  1.000  0.000  0.000   1.0 |
 |  0.17  0.83  0.00  1  3  1  0.000  0.000  1.000  1.000  0.000  0.000   1.0 |
 |  0.17  0.83  0.14  1  1  1  0.000  0.000  1.000  1.000  0.000  0.000   1.0 |
 |  0.17  0.83  0.14  1  2  1  0.000  0.000  1.000  1.000  0.000  0.000   1.0 |
 |  0.17  0.83  0.14  1  3  1  0.000  0.000  1.000  1.000  0.000  0.000   1.0 |
 |  0.67  0.33  0.00  1  1  1  0.000  0.000  1.000  1.000  0.000  0.000   1.0 |
 |  0.67  0.33  0.00  1  2  1  0.000  0.000  1.000  1.000  0.000  0.000   1.0 |
 |  0.67  0.33  0.00  1  3  1  0.000  0.000  1.000  1.000  0.000  0.000   1.0 |
 |  0.67  0.33  0.14  1  1  1  0.000  0.000  1.000  1.000  0.000  0.000   1.0 |
 |  0.67  0.33  0.14  1  2  1  0.000  0.000  1.000  1.000  0.000  0.000   1.0 |
 |  0.67  0.33  0.14  1  3  1  0.000  0.000  1.000  1.000  0.000  0.000   1.0 |
 |  0.67  0.58  0.00  1  1  1  0.000  0.000  1.000  1.000  0.000  0.000   1.0 |
 |  0.67  0.58  0.00  1  2  1  0.000  0.000  1.000  1.000  0.000  0.000   1.0 |
 |  0.67  0.58  0.00  1  3  1  0.000  0.000  1.000  1.000  0.000  0.000   1.0 |
 |  0.66  0.58  0.14  1  1  1  0.000  0.000  1.000  1.000  0.000  0.000   1.0 |
 |  0.66  0.58  0.14  1  2  1  0.000  0.000  1.000  1.000  0.000  0.000   1.0 |
 |  0.66  0.58  0.14  1  3  1  0.000  0.000  1.000  1.000  0.000  0.000   1.0 |
 |  0.42  0.58 -0.00  1  1  1  0.000  0.000  1.000  1.000  0.000  0.000   1.0 |
 |  0.42  0.58 -0.00  1  2  1  0.000  0.000  1.000  1.000  0.000  0.000   1.0 |
 |  0.42  0.58 -0.00  1  3  1  0.000  0.000  1.000  1.000  0.000  0.000   1.0 |
 |  0.41  0.58  0.14  1  1  1  0.000  0.000  1.000  1.000  0.000  0.000   1.0 |
 |  0.41  0.58  0.14  1  2  1  0.000  0.000  1.000  1.000  0.000  0.000   1.0 |
 |  0.41  0.58  0.14  1  3  1  0.000  0.000  1.000  1.000  0.000  0.000   1.0 |
 |  0.42  0.33  0.00  1  1  1  0.000  0.000  1.000  1.000  0.000  0.000   1.0 |
 |  0.42  0.33  0.00  1  2  1  0.000  0.000  1.000  1.000  0.000  0.000   1.0 |
 |  0.42  0.33  0.00  1  3  1  0.000  0.000  1.000  1.000  0.000  0.000   1.0 |
 |  0.41  0.33  0.14  1  1  1  0.000  0.000  1.000  1.000  0.000  0.000   1.0 |
 |  0.41  0.33  0.14  1  2  1  0.000  0.000  1.000  1.000  0.000  0.000   1.0 |
 |  0.41  0.33  0.14  1  3  1  0.000  0.000  1.000  1.000  0.000  0.000   1.0 |
 |  0.17  0.33 -0.00  1  1  1  0.000  0.000  1.000  1.000  0.000  0.000   1.0 |
 |  0.17  0.33 -0.00  1  2  1  0.000  0.000  1.000  1.000  0.000  0.000   1.0 |
 |  0.17  0.33 -0.00  1  3  1  0.000  0.000  1.000  1.000  0.000  0.000   1.0 |
 |  0.17  0.33  0.14  1  1  1  0.000  0.000  1.000  1.000  0.000  0.000   1.0 |
 |  0.17  0.33  0.14  1  2  1  0.000  0.000  1.000  1.000  0.000  0.000   1.0 |
 |  0.17  0.33  0.14  1  3  1  0.000  0.000  1.000  1.000  0.000  0.000   1.0 |
 |  0.17  0.58 -0.00  1  1  1  0.000  0.000  1.000  1.000  0.000  0.000   1.0 |
 |  0.17  0.58 -0.00  1  2  1  0.000  0.000  1.000  1.000  0.000  0.000   1.0 |
 |  0.17  0.58 -0.00  1  3  1  0.000  0.000  1.000  1.000  0.000  0.000   1.0 |
 |  0.17  0.58  0.14  1  1  1  0.000  0.000  1.000  1.000  0.000  0.000   1.0 |
 |  0.17  0.58  0.14  1  2  1  0.000  0.000  1.000  1.000  0.000  0.000   1.0 |
 |  0.17  0.58  0.14  1  3  1  0.000  0.000  1.000  1.000  0.000  0.000   1.0 |
 +----------------------------------------------------------------------------+
  
                                ------------
                                K-POINT GRID
                                ------------
  
             Grid size =  4 x  4 x  1      Total points =   16
  
 *----------------------------------------------------------------------------*
 | k-point      Fractional Coordinate        Cartesian Coordinate (Ang^-1)    |
 +----------------------------------------------------------------------------+
 |     1    0.00000   0.00000   0.00000   |    0.00000   0.00000   0.00000    |
 |     2    0.00000   0.25000   0.00000   |    0.00000   0.13159   0.00000    |
 |     3    0.00000   0.50000   0.00000   |    0.00000   0.26317   0.00000    |
 |     4    0.00000   0.75000   0.00000   |    0.00000   0.39476   0.00000    |
 |     5    0.25000   0.00000   0.00000   |    0.11396   0.06579   0.00000    |
 |     6    0.25000   0.25000   0.00000   |    0.11396   0.19738   0.00000    |
 |     7    0.25000   0.50000   0.00000   |    0.11396   0.32896   0.00000    |
 |     8    0.25000   0.75000   0.00000   |    0.11396   0.46055   0.00000    |
 |     9    0.50000   0.00000   0.00000   |    0.22791   0.13159   0.00000    |
 |    10    0.50000   0.25000   0.00000   |    0.22791   0.26317   0.00000    |
 |    11    0.50000   0.50000   0.00000   |    0.22791   0.39476   0.00000    |
 |    12    0.50000   0.75000   0.00000   |    0.22791   0.52634   0.00000    |
 |    13    0.75000   0.00000   0.00000   |    0.34187   0.19738   0.00000    |
 |    14    0.75000   0.25000   0.00000   |    0.34187   0.32896   0.00000    |
 |    15    0.75000   0.50000   0.00000   |    0.34187   0.46055   0.00000    |
 |    16    0.75000   0.75000   0.00000   |    0.34187   0.59214   0.00000    |
 *----------------------------------------------------------------------------*
  
  
 *---------------------------------- MAIN ------------------------------------*
 |  Number of Wannier Functions               :               181             |
 |  Number of Objective Wannier Functions     :               181             |
 |  Number of input Bloch states              :               450             |
 |  Output verbosity (1=low, 5=high)          :                 3             |
 |  Timing Level (1=low, 5=high)              :                 1             |
 |  Optimisation (0=memory, 3=speed)          :                 3             |
 |  Length Unit                               :               Ang             |
 |  Post-processing setup (write *.nnkp)      :                 F             |
 |  Using Gamma-only branch of algorithms     :                 F             |
 |  CP code post-processing                   :                 F             |
 |  Wavefunction (UNK) file-type              :       unformatted             |
 |  Wavefunction spin channel                 :                up             |
 *----------------------------------------------------------------------------*
 *------------------------------- WANNIERISE ---------------------------------*
 |  Total number of iterations                :               500             |
 |  Number of CG steps before reset           :                 5             |
 |  Trial step length for line search         :             2.000             |
 |  Convergence tolerence                     :         0.100E-09             |
 |  Convergence window                        :                -1             |
 |  Iterations between writing output         :                50             |
 |  Iterations between backing up to disk     :               100             |
 |  Write r^2_nm to file                      :                 F             |
 |  Write xyz WF centres to file              :                 T             |
 |  Write on-site energies <0n|H|0n> to file  :                 F             |
 |  Use guiding centre to control phases      :                 T             |
 |  Use phases for initial projections        :                 F             |
 |  Iterations before starting guiding centres:                 0             |
 |  Iterations between using guiding centres  :                 1             |
 |  Perform selective localization            :                 F             |
 |  Use constrains in selective localization  :                 F             |
 |  Value of the Lagrange multiplier          :         0.100E+01             |
 *----------------------------------------------------------------------------*
 *------------------------------- DISENTANGLE --------------------------------*
 |  Using band disentanglement                :                 T             |
 |  Total number of iterations                :              4000             |
 |  Mixing ratio                              :             0.500             |
 |  Convergence tolerence                     :         1.000E-10             |
 |  Convergence window                        :                 3             |
 *----------------------------------------------------------------------------*
 *-------------------------------- PLOTTING ----------------------------------*
 |  Plotting Wannier functions                :                 F             |
 |   Size of supercell for plotting           :     2x    2x    2             |
 |   Plotting mode (molecule or crystal)      :           crystal             |
 |   Plotting format                          :          xcrysden             |
 |   Plot radius                              :             3.500             |
 |   Plot scale                               :             1.000             |
 *----------------------------------------------------------------------------*
 |  Plotting Fermi surface                    :                 F             |
 |   Number of plotting points (along b_1)    :                50             |
 |   Plotting format                          :          xcrysden             |
 *----------------------------------------------------------------------------*
 |  Plotting interpolated bandstructure       :                 T             |
 |   Number of K-path sections                :                 3             |
 |   Divisions along first K-path section     :               100             |
 |   Output format                            :           gnuplot             |
 |   Output mode                              :               s-k             |
 *----------------------------------------------------------------------------*
 |   K-space path sections:                                                   |
 |    From: Γ      0.000  0.000  0.000     To: M       0.500  0.000  0.000   |
 |    From: M       0.500  0.000  0.000     To: K       0.333  0.333  0.000   |
 |    From: K       0.333  0.333  0.000     To: Γ      0.000  0.000  0.000   |
 *----------------------------------------------------------------------------*
 |  Plotting Hamiltonian in WF basis          :                 T             |
 *----------------------------------------------------------------------------*
 |  Writing data for Van der Waals post-proc  :                 F             |
 *----------------------------------------------------------------------------*
 *------------------------------- TRANSPORT ----------------------------------*
 |  Transport mode                            :              bulk             |
 |   Hamiltonian from external files          :                 F             |
 |   System extended in                       :              none             |
 |   Centre of the unit cell to which WF are translated (fract. coords):      |
 |                                       0.000000,    0.000000,    0.000000   |
 |  Fermi energy (eV)                         :             0.000             |
 *----------------------------------------------------------------------------*
 Time to read parameters        0.039 (sec)

 *---------------------------------- K-MESH ----------------------------------*
 +----------------------------------------------------------------------------+
 |                    Distance to Nearest-Neighbour Shells                    |
 |                    ------------------------------------                    |
 |          Shell             Distance (Ang^-1)          Multiplicity         |
 |          -----             -----------------          ------------         |
 |             1                   0.131586                      6            |
 |             2                   0.227913                      6            |
 |             3                   0.263171                      6            |
 |             4                   0.265883                      2            |
 |             5                   0.296662                     12            |
 |             6                   0.348143                     12            |
 |             7                   0.350197                     12            |
 |             8                   0.374103                     12            |
 |             9                   0.394757                      6            |
 |            10                   0.438061                     24            |
 |            11                   0.455826                      6            |
 |            12                   0.474439                     12            |
 |            13                   0.475948                     12            |
 |            14                   0.526343                      6            |
 |            15                   0.527704                     12            |
 |            16                   0.531765                      2            |
 |            17                   0.543862                     24            |
 |            18                   0.547804                     12            |
 |            19                   0.573569                     12            |
 |            20                   0.578549                     12            |
 |            21                   0.589686                     12            |
 |            22                   0.593324                     12            |
 |            23                   0.603001                     12            |
 |            24                   0.632198                     24            |
 |            25                   0.635592                     24            |
 |            26                   0.657928                      6            |
 |            27                   0.659018                     24            |
 |            28                   0.662274                     12            |
 |            29                   0.683739                      6            |
 |            30                   0.696286                     12            |
 |            31                   0.700394                     12            |
 |            32                   0.709622                     12            |
 |            33                   0.712647                     24            |
 |            34                   0.732638                     12            |
 |            35                   0.733616                     12            |
 |            36                   0.745324                     24            |
 +----------------------------------------------------------------------------+
 | The b-vectors are chosen automatically                                     |
 | Shell:  1 Multiplicity:  6                                                 |
 | b-vector 1 :        0.000000    0.131586    0.000000      (Ang^-1)         |
 | b-vector 2 :        0.113957    0.065793    0.000000      (Ang^-1)         |
 | b-vector 3 :        0.000000   -0.131586    0.000000      (Ang^-1)         |
 | b-vector 4 :        0.113957   -0.065793    0.000000      (Ang^-1)         |
 | b-vector 5 :       -0.113957   -0.065793    0.000000      (Ang^-1)         |
 | b-vector 6 :       -0.113957    0.065793    0.000000      (Ang^-1)         |
 | Shell:  1 w_b   19.2513662      (Ang^2)                                    |
 | B1 condition is not satisfied: Adding another shell                        |
 | Shell:  2 Multiplicity:  6                                                 |
 | b-vector 1 :        0.113957    0.197379    0.000000      (Ang^-1)         |
 | b-vector 2 :        0.113957   -0.197379    0.000000      (Ang^-1)         |
 | b-vector 3 :        0.227913   -0.000000    0.000000      (Ang^-1)         |
 | b-vector 4 :       -0.227913    0.000000    0.000000      (Ang^-1)         |
 | b-vector 5 :       -0.113957    0.197379    0.000000      (Ang^-1)         |
 | b-vector 6 :       -0.113957   -0.197379    0.000000      (Ang^-1)         |
 | SVD found small singular value, Rejecting this shell and trying the next   |
 | Shell:  3 Multiplicity:  6                                                 |
 | b-vector 1 :        0.000000    0.263171    0.000000      (Ang^-1)         |
 | b-vector 2 :        0.227913    0.131586    0.000000      (Ang^-1)         |
 | b-vector 3 :        0.000000   -0.263171    0.000000      (Ang^-1)         |
 | b-vector 4 :        0.227913   -0.131586    0.000000      (Ang^-1)         |
 | b-vector 5 :       -0.227913   -0.131586    0.000000      (Ang^-1)         |
 | b-vector 6 :       -0.227913    0.131586    0.000000      (Ang^-1)         |
 | This shell is linearly dependent on existing shells: Trying next shell     |
 | Shell:  4 Multiplicity:  2                                                 |
 | b-vector 1 :        0.000000    0.000000    0.265883      (Ang^-1)         |
 | b-vector 2 :        0.000000    0.000000   -0.265883      (Ang^-1)         |
 | Shell:  1 w_b   19.2513662      (Ang^2)                                    |
 | Shell:  2 w_b    7.0727819      (Ang^2)                                    |
 | The following shells are used:   1,  4                                     |
 +----------------------------------------------------------------------------+
 |                        Shell   # Nearest-Neighbours                        |
 |                        -----   --------------------                        |
 |                          1               6                                 |
 |                          4               2                                 |
 +----------------------------------------------------------------------------+
 | Completeness relation is fully satisfied [Eq. (B1), PRB 56, 12847 (1997)]  |
 +----------------------------------------------------------------------------+
 |                  b_k Vectors (Ang^-1) and Weights (Ang^2)                  |
 |                  ----------------------------------------                  |
 |            No.         b_k(x)      b_k(y)      b_k(z)        w_b           |
 |            ---        --------------------------------     --------        |
 |             1         0.000000    0.131586    0.000000    19.251366        |
 |             2         0.113957    0.065793    0.000000    19.251366        |
 |             3         0.000000   -0.131586    0.000000    19.251366        |
 |             4         0.113957   -0.065793    0.000000    19.251366        |
 |             5        -0.113957   -0.065793    0.000000    19.251366        |
 |             6        -0.113957    0.065793    0.000000    19.251366        |
 |             7         0.000000    0.000000    0.265883     7.072782        |
 |             8         0.000000    0.000000   -0.265883     7.072782        |
 +----------------------------------------------------------------------------+
 |                           b_k Directions (Ang^-1)                          |
 |                           -----------------------                          |
 |            No.           x           y           z                         |
 |            ---        --------------------------------                     |
 |             1         0.000000    0.131586    0.000000                     |
 |             2         0.113957    0.065793    0.000000                     |
 |             3         0.113957   -0.065793    0.000000                     |
 |             4         0.000000    0.000000    0.265883                     |
 +----------------------------------------------------------------------------+
  
 Time to get kmesh              0.022 (sec)
 *============================================================================*
 |                              MEMORY ESTIMATE                               |
 |         Maximum RAM allocated during each phase of the calculation         |
 *============================================================================*
 |                        Disentanglement          550.06 Mb                  |
 |                            Wannierise:          183.41 Mb                  |
 |                                                                            |
 |   N.B. by setting optimisation=0 memory usage will be reduced to:          |
 |                        Disentanglement          550.06 Mb                  |
 |                            Wannierise:          119.42 Mb                  |
 |   However, this will result in more i/o and slow down the calculation      |
 |                          plot_wannier:          183.41 Mb                  |
 *----------------------------------------------------------------------------*
  
 Starting a new Wannier90 calculation ...


 Reading overlaps from 1Fe_Nbconf.down.mmn    :  Created on 11Jul2023 at 19:31: 9

 Reading projections from 1Fe_Nbconf.down.amn :  Created on 11Jul2023 at 19:12:39

 Time to read overlaps         62.247 (sec)

 *------------------------------- DISENTANGLE --------------------------------*
 +----------------------------------------------------------------------------+
 |                              Energy  Windows                               |
 |                              ---------------                               |
 |                   Outer:  -30.00000  to   30.00000  (eV)                   |
 |                   Inner:   -6.00000  to    1.00000  (eV)                   |
 +----------------------------------------------------------------------------+
 |                        K-points with Frozen States                         |
 |                        ---------------------------                         |
 |     1     2     3     4     5     6     7     8     9    10    11    12    |
 |    13    14    15    16                                                    |
 +----------------------------------------------------------------------------+
   Number of target bands to extract:  181
 +----------------------------------------------------------------------------+
 |                                  Windows                                   |
 |                                  -------                                   |
 |               K-point      Ndimwin     Ndimfroz    Nfirstwin               |
 |               ----------------------------------------------               |
 |                   1          382          113          69                  |
 |                   2          382          114          69                  |
 |                   3          382          114          69                  |
 |                   4          382          114          69                  |
 |                   5          382          114          69                  |
 |                   6          382          115          69                  |
 |                   7          382          115          69                  |
 |                   8          382          114          69                  |
 |                   9          382          114          69                  |
 |                  10          382          115          69                  |
 |                  11          382          114          69                  |
 |                  12          382          115          69                  |
 |                  13          382          114          69                  |
 |                  14          382          114          69                  |
 |                  15          382          115          69                  |
 |                  16          382          115          69                  |
 +----------------------------------------------------------------------------+

                   Unitarised projection of Wannier functions                  
                   ------------------------------------------                  
   A_mn = <psi_m|g_n> --> S = A.A^+ --> U = S^-1/2.A
   In dis_project... done
   Using an inner window (linner = T)
   In dis_proj_froz...
 K-point   1 ndimwin: 382 we want the 68 leading eigenvector(s) of QPQ
  lambda(  1)= -0.000000000000
  lambda(  2)= -0.000000000000
  lambda(  3)= -0.000000000000
  lambda(  4)= -0.000000000000
  lambda(  5)= -0.000000000000
  lambda(  6)= -0.000000000000
  lambda(  7)= -0.000000000000
  lambda(  8)= -0.000000000000
  lambda(  9)= -0.000000000000
  lambda( 10)= -0.000000000000
  lambda( 11)= -0.000000000000
  lambda( 12)= -0.000000000000
  lambda( 13)= -0.000000000000
  lambda( 14)= -0.000000000000
  lambda( 15)= -0.000000000000
  lambda( 16)= -0.000000000000
  lambda( 17)= -0.000000000000
  lambda( 18)= -0.000000000000
  lambda( 19)= -0.000000000000
  lambda( 20)= -0.000000000000
  lambda( 21)= -0.000000000000
  lambda( 22)= -0.000000000000
  lambda( 23)= -0.000000000000
  lambda( 24)= -0.000000000000
  lambda( 25)= -0.000000000000
  lambda( 26)= -0.000000000000
  lambda( 27)= -0.000000000000
  lambda( 28)= -0.000000000000
  lambda( 29)= -0.000000000000
  lambda( 30)= -0.000000000000
  lambda( 31)= -0.000000000000
  lambda( 32)= -0.000000000000
  lambda( 33)= -0.000000000000
  lambda( 34)= -0.000000000000
  lambda( 35)= -0.000000000000
  lambda( 36)= -0.000000000000
  lambda( 37)= -0.000000000000
  lambda( 38)= -0.000000000000
  lambda( 39)= -0.000000000000
  lambda( 40)= -0.000000000000
  lambda( 41)= -0.000000000000
  lambda( 42)= -0.000000000000
  lambda( 43)= -0.000000000000
  lambda( 44)= -0.000000000000
  lambda( 45)= -0.000000000000
  lambda( 46)= -0.000000000000
  lambda( 47)= -0.000000000000
  lambda( 48)= -0.000000000000
  lambda( 49)= -0.000000000000
  lambda( 50)= -0.000000000000
  lambda( 51)= -0.000000000000
  lambda( 52)= -0.000000000000
  lambda( 53)= -0.000000000000
  lambda( 54)= -0.000000000000
  lambda( 55)= -0.000000000000
  lambda( 56)= -0.000000000000
  lambda( 57)= -0.000000000000
  lambda( 58)= -0.000000000000
  lambda( 59)= -0.000000000000
  lambda( 60)= -0.000000000000
  lambda( 61)= -0.000000000000
  lambda( 62)= -0.000000000000
  lambda( 63)= -0.000000000000
  lambda( 64)= -0.000000000000
  lambda( 65)= -0.000000000000
  lambda( 66)= -0.000000000000
  lambda( 67)= -0.000000000000
  lambda( 68)= -0.000000000000
  lambda( 69)= -0.000000000000
  lambda( 70)= -0.000000000000
  lambda( 71)= -0.000000000000
  lambda( 72)= -0.000000000000
  lambda( 73)= -0.000000000000
  lambda( 74)= -0.000000000000
  lambda( 75)= -0.000000000000
  lambda( 76)= -0.000000000000
  lambda( 77)= -0.000000000000
  lambda( 78)= -0.000000000000
  lambda( 79)= -0.000000000000
  lambda( 80)= -0.000000000000
  lambda( 81)= -0.000000000000
  lambda( 82)= -0.000000000000
  lambda( 83)= -0.000000000000
  lambda( 84)= -0.000000000000
  lambda( 85)= -0.000000000000
  lambda( 86)= -0.000000000000
  lambda( 87)= -0.000000000000
  lambda( 88)= -0.000000000000
  lambda( 89)= -0.000000000000
  lambda( 90)= -0.000000000000
  lambda( 91)= -0.000000000000
  lambda( 92)= -0.000000000000
  lambda( 93)= -0.000000000000
  lambda( 94)= -0.000000000000
  lambda( 95)= -0.000000000000
  lambda( 96)= -0.000000000000
  lambda( 97)= -0.000000000000
  lambda( 98)= -0.000000000000
  lambda( 99)= -0.000000000000
  lambda(100)= -0.000000000000
  lambda(101)= -0.000000000000
  lambda(102)= -0.000000000000
  lambda(103)=  0.000000000000
  lambda(104)=  0.000000000000
  lambda(105)=  0.000000000000
  lambda(106)=  0.000000000000
  lambda(107)=  0.000000000000
  lambda(108)=  0.000000000000
  lambda(109)=  0.000000000000
  lambda(110)=  0.000000000000
  lambda(111)=  0.000000000000
  lambda(112)=  0.000000000000
  lambda(113)=  0.000000000000
  lambda(114)=  0.000000000000
  lambda(115)=  0.000000000000
  lambda(116)=  0.000000000000
  lambda(117)=  0.000000000000
  lambda(118)=  0.000000000000
  lambda(119)=  0.000000000000
  lambda(120)=  0.000000000000
  lambda(121)=  0.000000000000
  lambda(122)=  0.000000000000
  lambda(123)=  0.000000000000
  lambda(124)=  0.000000000000
  lambda(125)=  0.000000000000
  lambda(126)=  0.000000000000
  lambda(127)=  0.000000000000
  lambda(128)=  0.000000000000
  lambda(129)=  0.000000000000
  lambda(130)=  0.000000000000
  lambda(131)=  0.000000000000
  lambda(132)=  0.000000000000
  lambda(133)=  0.000000000000
  lambda(134)=  0.000000000000
  lambda(135)=  0.000000000000
  lambda(136)=  0.000000000000
  lambda(137)=  0.000000000000
  lambda(138)=  0.000000000000
  lambda(139)=  0.000000000000
  lambda(140)=  0.000000000000
  lambda(141)=  0.000000000000
  lambda(142)=  0.000000000000
  lambda(143)=  0.000000000000
  lambda(144)=  0.000000000000
  lambda(145)=  0.000000000000
  lambda(146)=  0.000000000000
  lambda(147)=  0.000000000000
  lambda(148)=  0.000000000000
  lambda(149)=  0.000000000000
  lambda(150)=  0.000000000000
  lambda(151)=  0.000000000000
  lambda(152)=  0.000000000000
  lambda(153)=  0.000000000000
  lambda(154)=  0.000000000000
  lambda(155)=  0.000000000000
  lambda(156)=  0.000000000000
  lambda(157)=  0.000000000000
  lambda(158)=  0.000000000000
  lambda(159)=  0.000000000000
  lambda(160)=  0.000000000000
  lambda(161)=  0.000000000000
  lambda(162)=  0.000000000000
  lambda(163)=  0.000000000000
  lambda(164)=  0.000000000000
  lambda(165)=  0.000000000000
  lambda(166)=  0.000000000000
  lambda(167)=  0.000000000000
  lambda(168)=  0.000000000000
  lambda(169)=  0.000000000000
  lambda(170)=  0.000000000000
  lambda(171)=  0.000000000000
  lambda(172)=  0.000000000000
  lambda(173)=  0.000000000000
  lambda(174)=  0.000000000000
  lambda(175)=  0.000000000000
  lambda(176)=  0.000000000000
  lambda(177)=  0.000000000000
  lambda(178)=  0.000000000000
  lambda(179)=  0.000000000000
  lambda(180)=  0.000000000000
  lambda(181)=  0.000000000000
  lambda(182)=  0.000000000000
  lambda(183)=  0.000000000000
  lambda(184)=  0.000000000000
  lambda(185)=  0.000000000000
  lambda(186)=  0.000000000000
  lambda(187)=  0.000000000000
  lambda(188)=  0.000000000000
  lambda(189)=  0.000000000000
  lambda(190)=  0.000000000000
  lambda(191)=  0.000000000000
  lambda(192)=  0.000000000000
  lambda(193)=  0.000000000000
  lambda(194)=  0.000000000000
  lambda(195)=  0.000000000000
  lambda(196)=  0.000000000000
  lambda(197)=  0.000000000000
  lambda(198)=  0.000000000000
  lambda(199)=  0.000000000000
  lambda(200)=  0.000000000000
  lambda(201)=  0.000000000000
  lambda(202)=  0.000000000724
  lambda(203)=  0.000000008772
  lambda(204)=  0.000001138830
  lambda(205)=  0.000003331397
  lambda(206)=  0.000003340797
  lambda(207)=  0.000007847504
  lambda(208)=  0.000007884948
  lambda(209)=  0.000008308564
  lambda(210)=  0.000014098348
  lambda(211)=  0.000018610317
  lambda(212)=  0.000018659649
  lambda(213)=  0.000024785717
  lambda(214)=  0.000024814216
  lambda(215)=  0.000039081070
  lambda(216)=  0.000039157550
  lambda(217)=  0.000154791392
  lambda(218)=  0.000154928912
  lambda(219)=  0.000187716968
  lambda(220)=  0.000187789647
  lambda(221)=  0.000247621009
  lambda(222)=  0.000247651885
  lambda(223)=  0.000263648563
  lambda(224)=  0.000387308697
  lambda(225)=  0.000387434904
  lambda(226)=  0.000412401543
  lambda(227)=  0.000590027923
  lambda(228)=  0.000640157925
  lambda(229)=  0.000640314462
  lambda(230)=  0.000787913798
  lambda(231)=  0.000788261193
  lambda(232)=  0.000898103716
  lambda(233)=  0.001960616027
  lambda(234)=  0.002292256969
  lambda(235)=  0.002293338806
  lambda(236)=  0.002853088779
  lambda(237)=  0.002854615840
  lambda(238)=  0.003513816673
  lambda(239)=  0.003831018012
  lambda(240)=  0.003831633175
  lambda(241)=  0.006389993928
  lambda(242)=  0.009541428186
  lambda(243)=  0.009978642618
  lambda(244)=  0.009980298823
  lambda(245)=  0.010895840121
  lambda(246)=  0.010896522474
  lambda(247)=  0.014051411038
  lambda(248)=  0.014052732500
  lambda(249)=  0.015960907871
  lambda(250)=  0.019713468554
  lambda(251)=  0.019716550703
  lambda(252)=  0.021522420629
  lambda(253)=  0.023644510732
  lambda(254)=  0.023757884842
  lambda(255)=  0.023759866727
  lambda(256)=  0.027466828802
  lambda(257)=  0.027467257797
  lambda(258)=  0.027529280844
  lambda(259)=  0.033295366162
  lambda(260)=  0.033295930382
  lambda(261)=  0.034562173945
  lambda(262)=  0.035115549250
  lambda(263)=  0.035116744434
  lambda(264)=  0.037748183111
  lambda(265)=  0.039179648137
  lambda(266)=  0.039180118378
  lambda(267)=  0.040195527894
  lambda(268)=  0.041398470545
  lambda(269)=  0.041402471253
  lambda(270)=  0.041639946321
  lambda(271)=  0.042546286362
  lambda(272)=  0.051339632152
  lambda(273)=  0.051341848210
  lambda(274)=  0.059822919890
  lambda(275)=  0.060353080925
  lambda(276)=  0.061575693048
  lambda(277)=  0.061576636450
  lambda(278)=  0.061926154626
  lambda(279)=  0.063692777948
  lambda(280)=  0.063695382944
  lambda(281)=  0.064764034224
  lambda(282)=  0.064766974899
  lambda(283)=  0.065321803190
  lambda(284)=  0.067371504154
  lambda(285)=  0.069829000994
  lambda(286)=  0.072302814906
  lambda(287)=  0.072304196521
  lambda(288)=  0.073541642072
  lambda(289)=  0.073541996642
  lambda(290)=  0.073753884990
  lambda(291)=  0.087603501104
  lambda(292)=  0.093007388235
  lambda(293)=  0.093008614258
  lambda(294)=  0.095759915498
  lambda(295)=  0.095760894007
  lambda(296)=  0.105134729465
  lambda(297)=  0.108713228627
  lambda(298)=  0.108721413826
  lambda(299)=  0.122210271665
  lambda(300)=  0.132375837921
  lambda(301)=  0.132379602464
  lambda(302)=  0.143765543851
  lambda(303)=  0.144271292634
  lambda(304)=  0.144280335564
  lambda(305)=  0.145305172252
  lambda(306)=  0.151021521229
  lambda(307)=  0.151027597584
  lambda(308)=  0.172289211296
  lambda(309)=  0.172291847758
  lambda(310)=  0.173999851951
  lambda(311)=  0.174279400289
  lambda(312)=  0.174494243339
  lambda(313)=  0.174495360687
  lambda(314)=  0.207518144211
  lambda(315)=  1.000000000000
  lambda(316)=  1.000000000000
  lambda(317)=  1.000000000000
  lambda(318)=  1.000000000000
  lambda(319)=  1.000000000000
  lambda(320)=  1.000000000000
  lambda(321)=  1.000000000000
  lambda(322)=  1.000000000000
  lambda(323)=  1.000000000000
  lambda(324)=  1.000000000000
  lambda(325)=  1.000000000000
  lambda(326)=  1.000000000000
  lambda(327)=  1.000000000000
  lambda(328)=  1.000000000000
  lambda(329)=  1.000000000000
  lambda(330)=  1.000000000000
  lambda(331)=  1.000000000000
  lambda(332)=  1.000000000000
  lambda(333)=  1.000000000000
  lambda(334)=  1.000000000000
  lambda(335)=  1.000000000000
  lambda(336)=  1.000000000000
  lambda(337)=  1.000000000000
  lambda(338)=  1.000000000000
  lambda(339)=  1.000000000000
  lambda(340)=  1.000000000000
  lambda(341)=  1.000000000000
  lambda(342)=  1.000000000000
  lambda(343)=  1.000000000000
  lambda(344)=  1.000000000000
  lambda(345)=  1.000000000000
  lambda(346)=  1.000000000000
  lambda(347)=  1.000000000000
  lambda(348)=  1.000000000000
  lambda(349)=  1.000000000000
  lambda(350)=  1.000000000000
  lambda(351)=  1.000000000000
  lambda(352)=  1.000000000000
  lambda(353)=  1.000000000000
  lambda(354)=  1.000000000000
  lambda(355)=  1.000000000000
  lambda(356)=  1.000000000000
  lambda(357)=  1.000000000000
  lambda(358)=  1.000000000000
  lambda(359)=  1.000000000000
  lambda(360)=  1.000000000000
  lambda(361)=  1.000000000000
  lambda(362)=  1.000000000000
  lambda(363)=  1.000000000000
  lambda(364)=  1.000000000000
  lambda(365)=  1.000000000000
  lambda(366)=  1.000000000000
  lambda(367)=  1.000000000000
  lambda(368)=  1.000000000000
  lambda(369)=  1.000000000000
  lambda(370)=  1.000000000000
  lambda(371)=  1.000000000000
  lambda(372)=  1.000000000000
  lambda(373)=  1.000000000000
  lambda(374)=  1.000000000000
  lambda(375)=  1.000000000000
  lambda(376)=  1.000000000000
  lambda(377)=  1.000000000000
  lambda(378)=  1.000000000000
  lambda(379)=  1.000000000000
  lambda(380)=  1.000000000000
  lambda(381)=  1.000000000000
  lambda(382)=  1.000000000000

 K-point   2 ndimwin: 382 we want the 67 leading eigenvector(s) of QPQ
  lambda(  1)= -0.000000000000
  lambda(  2)= -0.000000000000
  lambda(  3)= -0.000000000000
  lambda(  4)= -0.000000000000
  lambda(  5)= -0.000000000000
  lambda(  6)= -0.000000000000
  lambda(  7)= -0.000000000000
  lambda(  8)= -0.000000000000
  lambda(  9)= -0.000000000000
  lambda( 10)= -0.000000000000
  lambda( 11)= -0.000000000000
  lambda( 12)= -0.000000000000
  lambda( 13)= -0.000000000000
  lambda( 14)= -0.000000000000
  lambda( 15)= -0.000000000000
  lambda( 16)= -0.000000000000
  lambda( 17)= -0.000000000000
  lambda( 18)= -0.000000000000
  lambda( 19)= -0.000000000000
  lambda( 20)= -0.000000000000
  lambda( 21)= -0.000000000000
  lambda( 22)= -0.000000000000
  lambda( 23)= -0.000000000000
  lambda( 24)= -0.000000000000
  lambda( 25)= -0.000000000000
  lambda( 26)= -0.000000000000
  lambda( 27)= -0.000000000000
  lambda( 28)= -0.000000000000
  lambda( 29)= -0.000000000000
  lambda( 30)= -0.000000000000
  lambda( 31)= -0.000000000000
  lambda( 32)= -0.000000000000
  lambda( 33)= -0.000000000000
  lambda( 34)= -0.000000000000
  lambda( 35)= -0.000000000000
  lambda( 36)= -0.000000000000
  lambda( 37)= -0.000000000000
  lambda( 38)= -0.000000000000
  lambda( 39)= -0.000000000000
  lambda( 40)= -0.000000000000
  lambda( 41)= -0.000000000000
  lambda( 42)= -0.000000000000
  lambda( 43)= -0.000000000000
  lambda( 44)= -0.000000000000
  lambda( 45)= -0.000000000000
  lambda( 46)= -0.000000000000
  lambda( 47)= -0.000000000000
  lambda( 48)= -0.000000000000
  lambda( 49)= -0.000000000000
  lambda( 50)= -0.000000000000
  lambda( 51)= -0.000000000000
  lambda( 52)= -0.000000000000
  lambda( 53)= -0.000000000000
  lambda( 54)= -0.000000000000
  lambda( 55)= -0.000000000000
  lambda( 56)= -0.000000000000
  lambda( 57)= -0.000000000000
  lambda( 58)= -0.000000000000
  lambda( 59)= -0.000000000000
  lambda( 60)= -0.000000000000
  lambda( 61)= -0.000000000000
  lambda( 62)= -0.000000000000
  lambda( 63)= -0.000000000000
  lambda( 64)= -0.000000000000
  lambda( 65)= -0.000000000000
  lambda( 66)= -0.000000000000
  lambda( 67)= -0.000000000000
  lambda( 68)= -0.000000000000
  lambda( 69)= -0.000000000000
  lambda( 70)= -0.000000000000
  lambda( 71)= -0.000000000000
  lambda( 72)= -0.000000000000
  lambda( 73)= -0.000000000000
  lambda( 74)= -0.000000000000
  lambda( 75)= -0.000000000000
  lambda( 76)= -0.000000000000
  lambda( 77)= -0.000000000000
  lambda( 78)= -0.000000000000
  lambda( 79)= -0.000000000000
  lambda( 80)= -0.000000000000
  lambda( 81)= -0.000000000000
  lambda( 82)= -0.000000000000
  lambda( 83)= -0.000000000000
  lambda( 84)= -0.000000000000
  lambda( 85)= -0.000000000000
  lambda( 86)= -0.000000000000
  lambda( 87)= -0.000000000000
  lambda( 88)= -0.000000000000
  lambda( 89)= -0.000000000000
  lambda( 90)= -0.000000000000
  lambda( 91)= -0.000000000000
  lambda( 92)= -0.000000000000
  lambda( 93)= -0.000000000000
  lambda( 94)= -0.000000000000
  lambda( 95)= -0.000000000000
  lambda( 96)= -0.000000000000
  lambda( 97)= -0.000000000000
  lambda( 98)= -0.000000000000
  lambda( 99)= -0.000000000000
  lambda(100)= -0.000000000000
  lambda(101)= -0.000000000000
  lambda(102)=  0.000000000000
  lambda(103)=  0.000000000000
  lambda(104)=  0.000000000000
  lambda(105)=  0.000000000000
  lambda(106)=  0.000000000000
  lambda(107)=  0.000000000000
  lambda(108)=  0.000000000000
  lambda(109)=  0.000000000000
  lambda(110)=  0.000000000000
  lambda(111)=  0.000000000000
  lambda(112)=  0.000000000000
  lambda(113)=  0.000000000000
  lambda(114)=  0.000000000000
  lambda(115)=  0.000000000000
  lambda(116)=  0.000000000000
  lambda(117)=  0.000000000000
  lambda(118)=  0.000000000000
  lambda(119)=  0.000000000000
  lambda(120)=  0.000000000000
  lambda(121)=  0.000000000000
  lambda(122)=  0.000000000000
  lambda(123)=  0.000000000000
  lambda(124)=  0.000000000000
  lambda(125)=  0.000000000000
  lambda(126)=  0.000000000000
  lambda(127)=  0.000000000000
  lambda(128)=  0.000000000000
  lambda(129)=  0.000000000000
  lambda(130)=  0.000000000000
  lambda(131)=  0.000000000000
  lambda(132)=  0.000000000000
  lambda(133)=  0.000000000000
  lambda(134)=  0.000000000000
  lambda(135)=  0.000000000000
  lambda(136)=  0.000000000000
  lambda(137)=  0.000000000000
  lambda(138)=  0.000000000000
  lambda(139)=  0.000000000000
  lambda(140)=  0.000000000000
  lambda(141)=  0.000000000000
  lambda(142)=  0.000000000000
  lambda(143)=  0.000000000000
  lambda(144)=  0.000000000000
  lambda(145)=  0.000000000000
  lambda(146)=  0.000000000000
  lambda(147)=  0.000000000000
  lambda(148)=  0.000000000000
  lambda(149)=  0.000000000000
  lambda(150)=  0.000000000000
  lambda(151)=  0.000000000000
  lambda(152)=  0.000000000000
  lambda(153)=  0.000000000000
  lambda(154)=  0.000000000000
  lambda(155)=  0.000000000000
  lambda(156)=  0.000000000000
  lambda(157)=  0.000000000000
  lambda(158)=  0.000000000000
  lambda(159)=  0.000000000000
  lambda(160)=  0.000000000000
  lambda(161)=  0.000000000000
  lambda(162)=  0.000000000000
  lambda(163)=  0.000000000000
  lambda(164)=  0.000000000000
  lambda(165)=  0.000000000000
  lambda(166)=  0.000000000000
  lambda(167)=  0.000000000000
  lambda(168)=  0.000000000000
  lambda(169)=  0.000000000000
  lambda(170)=  0.000000000000
  lambda(171)=  0.000000000000
  lambda(172)=  0.000000000000
  lambda(173)=  0.000000000000
  lambda(174)=  0.000000000000
  lambda(175)=  0.000000000000
  lambda(176)=  0.000000000000
  lambda(177)=  0.000000000000
  lambda(178)=  0.000000000000
  lambda(179)=  0.000000000000
  lambda(180)=  0.000000000000
  lambda(181)=  0.000000000000
  lambda(182)=  0.000000000000
  lambda(183)=  0.000000000000
  lambda(184)=  0.000000000000
  lambda(185)=  0.000000000000
  lambda(186)=  0.000000000000
  lambda(187)=  0.000000000000
  lambda(188)=  0.000000000000
  lambda(189)=  0.000000000000
  lambda(190)=  0.000000000000
  lambda(191)=  0.000000000000
  lambda(192)=  0.000000000000
  lambda(193)=  0.000000000000
  lambda(194)=  0.000000000000
  lambda(195)=  0.000000000000
  lambda(196)=  0.000000000000
  lambda(197)=  0.000000000000
  lambda(198)=  0.000000000000
  lambda(199)=  0.000000000000
  lambda(200)=  0.000000000000
  lambda(201)=  0.000000000000
  lambda(202)=  0.000000403460
  lambda(203)=  0.000001614194
  lambda(204)=  0.000004051338
  lambda(205)=  0.000006575509
  lambda(206)=  0.000010833288
  lambda(207)=  0.000022973680
  lambda(208)=  0.000095071313
  lambda(209)=  0.000208808349
  lambda(210)=  0.000283422202
  lambda(211)=  0.000303191905
  lambda(212)=  0.000380070267
  lambda(213)=  0.000508663058
  lambda(214)=  0.000579707535
  lambda(215)=  0.000674711600
  lambda(216)=  0.000757180099
  lambda(217)=  0.000766413153
  lambda(218)=  0.000992260910
  lambda(219)=  0.001067263635
  lambda(220)=  0.001157496945
  lambda(221)=  0.001229268928
  lambda(222)=  0.001305969935
  lambda(223)=  0.001444807429
  lambda(224)=  0.001494572889
  lambda(225)=  0.002183375686
  lambda(226)=  0.002270476338
  lambda(227)=  0.002537111642
  lambda(228)=  0.002805619093
  lambda(229)=  0.003146105693
  lambda(230)=  0.003154229598
  lambda(231)=  0.003616557011
  lambda(232)=  0.003898886989
  lambda(233)=  0.003902055548
  lambda(234)=  0.004099495809
  lambda(235)=  0.004350857037
  lambda(236)=  0.004485730816
  lambda(237)=  0.004825735929
  lambda(238)=  0.005149010435
  lambda(239)=  0.005304605261
  lambda(240)=  0.005563092994
  lambda(241)=  0.005985719959
  lambda(242)=  0.007857542436
  lambda(243)=  0.008232400568
  lambda(244)=  0.008553902360
  lambda(245)=  0.009973178954
  lambda(246)=  0.012036465474
  lambda(247)=  0.012273120225
  lambda(248)=  0.015278683447
  lambda(249)=  0.016701346647
  lambda(250)=  0.017927144179
  lambda(251)=  0.019345292240
  lambda(252)=  0.020118604383
  lambda(253)=  0.020136349704
  lambda(254)=  0.021272560228
  lambda(255)=  0.021324117557
  lambda(256)=  0.022181669310
  lambda(257)=  0.023966420385
  lambda(258)=  0.025053588203
  lambda(259)=  0.025721059945
  lambda(260)=  0.026902556159
  lambda(261)=  0.029733228134
  lambda(262)=  0.030858811741
  lambda(263)=  0.032178766483
  lambda(264)=  0.034784774066
  lambda(265)=  0.035382583955
  lambda(266)=  0.036574644931
  lambda(267)=  0.040645105163
  lambda(268)=  0.041954343473
  lambda(269)=  0.042710060976
  lambda(270)=  0.047104657028
  lambda(271)=  0.048289907899
  lambda(272)=  0.049439765640
  lambda(273)=  0.051190322323
  lambda(274)=  0.053011900735
  lambda(275)=  0.056495421181
  lambda(276)=  0.058308879219
  lambda(277)=  0.058865524258
  lambda(278)=  0.060613177160
  lambda(279)=  0.060927977501
  lambda(280)=  0.062120935532
  lambda(281)=  0.062734788582
  lambda(282)=  0.063111580363
  lambda(283)=  0.063776074332
  lambda(284)=  0.064211015909
  lambda(285)=  0.064870730881
  lambda(286)=  0.065146874206
  lambda(287)=  0.065411318088
  lambda(288)=  0.069987009474
  lambda(289)=  0.076795189898
  lambda(290)=  0.079367962453
  lambda(291)=  0.082605057236
  lambda(292)=  0.090682940343
  lambda(293)=  0.093522538962
  lambda(294)=  0.095080249299
  lambda(295)=  0.096477022838
  lambda(296)=  0.100625894458
  lambda(297)=  0.103638524177
  lambda(298)=  0.110764763311
  lambda(299)=  0.115519986030
  lambda(300)=  0.116817580554
  lambda(301)=  0.118667506193
  lambda(302)=  0.127761024180
  lambda(303)=  0.141370794760
  lambda(304)=  0.145896570452
  lambda(305)=  0.153793745401
  lambda(306)=  0.157065412824
  lambda(307)=  0.158028098385
  lambda(308)=  0.165247301528
  lambda(309)=  0.166248916955
  lambda(310)=  0.170205577053
  lambda(311)=  0.170378629233
  lambda(312)=  0.172013410138
  lambda(313)=  0.177940178801
  lambda(314)=  0.179458733567
  lambda(315)=  0.208919219781
  lambda(316)=  1.000000000000
  lambda(317)=  1.000000000000
  lambda(318)=  1.000000000000
  lambda(319)=  1.000000000000
  lambda(320)=  1.000000000000
  lambda(321)=  1.000000000000
  lambda(322)=  1.000000000000
  lambda(323)=  1.000000000000
  lambda(324)=  1.000000000000
  lambda(325)=  1.000000000000
  lambda(326)=  1.000000000000
  lambda(327)=  1.000000000000
  lambda(328)=  1.000000000000
  lambda(329)=  1.000000000000
  lambda(330)=  1.000000000000
  lambda(331)=  1.000000000000
  lambda(332)=  1.000000000000
  lambda(333)=  1.000000000000
  lambda(334)=  1.000000000000
  lambda(335)=  1.000000000000
  lambda(336)=  1.000000000000
  lambda(337)=  1.000000000000
  lambda(338)=  1.000000000000
  lambda(339)=  1.000000000000
  lambda(340)=  1.000000000000
  lambda(341)=  1.000000000000
  lambda(342)=  1.000000000000
  lambda(343)=  1.000000000000
  lambda(344)=  1.000000000000
  lambda(345)=  1.000000000000
  lambda(346)=  1.000000000000
  lambda(347)=  1.000000000000
  lambda(348)=  1.000000000000
  lambda(349)=  1.000000000000
  lambda(350)=  1.000000000000
  lambda(351)=  1.000000000000
  lambda(352)=  1.000000000000
  lambda(353)=  1.000000000000
  lambda(354)=  1.000000000000
  lambda(355)=  1.000000000000
  lambda(356)=  1.000000000000
  lambda(357)=  1.000000000000
  lambda(358)=  1.000000000000
  lambda(359)=  1.000000000000
  lambda(360)=  1.000000000000
  lambda(361)=  1.000000000000
  lambda(362)=  1.000000000000
  lambda(363)=  1.000000000000
  lambda(364)=  1.000000000000
  lambda(365)=  1.000000000000
  lambda(366)=  1.000000000000
  lambda(367)=  1.000000000000
  lambda(368)=  1.000000000000
  lambda(369)=  1.000000000000
  lambda(370)=  1.000000000000
  lambda(371)=  1.000000000000
  lambda(372)=  1.000000000000
  lambda(373)=  1.000000000000
  lambda(374)=  1.000000000000
  lambda(375)=  1.000000000000
  lambda(376)=  1.000000000000
  lambda(377)=  1.000000000000
  lambda(378)=  1.000000000000
  lambda(379)=  1.000000000000
  lambda(380)=  1.000000000000
  lambda(381)=  1.000000000000
  lambda(382)=  1.000000000000

 K-point   3 ndimwin: 382 we want the 67 leading eigenvector(s) of QPQ
  lambda(  1)= -0.000000000000
  lambda(  2)= -0.000000000000
  lambda(  3)= -0.000000000000
  lambda(  4)= -0.000000000000
  lambda(  5)= -0.000000000000
  lambda(  6)= -0.000000000000
  lambda(  7)= -0.000000000000
  lambda(  8)= -0.000000000000
  lambda(  9)= -0.000000000000
  lambda( 10)= -0.000000000000
  lambda( 11)= -0.000000000000
  lambda( 12)= -0.000000000000
  lambda( 13)= -0.000000000000
  lambda( 14)= -0.000000000000
  lambda( 15)= -0.000000000000
  lambda( 16)= -0.000000000000
  lambda( 17)= -0.000000000000
  lambda( 18)= -0.000000000000
  lambda( 19)= -0.000000000000
  lambda( 20)= -0.000000000000
  lambda( 21)= -0.000000000000
  lambda( 22)= -0.000000000000
  lambda( 23)= -0.000000000000
  lambda( 24)= -0.000000000000
  lambda( 25)= -0.000000000000
  lambda( 26)= -0.000000000000
  lambda( 27)= -0.000000000000
  lambda( 28)= -0.000000000000
  lambda( 29)= -0.000000000000
  lambda( 30)= -0.000000000000
  lambda( 31)= -0.000000000000
  lambda( 32)= -0.000000000000
  lambda( 33)= -0.000000000000
  lambda( 34)= -0.000000000000
  lambda( 35)= -0.000000000000
  lambda( 36)= -0.000000000000
  lambda( 37)= -0.000000000000
  lambda( 38)= -0.000000000000
  lambda( 39)= -0.000000000000
  lambda( 40)= -0.000000000000
  lambda( 41)= -0.000000000000
  lambda( 42)= -0.000000000000
  lambda( 43)= -0.000000000000
  lambda( 44)= -0.000000000000
  lambda( 45)= -0.000000000000
  lambda( 46)= -0.000000000000
  lambda( 47)= -0.000000000000
  lambda( 48)= -0.000000000000
  lambda( 49)= -0.000000000000
  lambda( 50)= -0.000000000000
  lambda( 51)= -0.000000000000
  lambda( 52)= -0.000000000000
  lambda( 53)= -0.000000000000
  lambda( 54)= -0.000000000000
  lambda( 55)= -0.000000000000
  lambda( 56)= -0.000000000000
  lambda( 57)= -0.000000000000
  lambda( 58)= -0.000000000000
  lambda( 59)= -0.000000000000
  lambda( 60)= -0.000000000000
  lambda( 61)= -0.000000000000
  lambda( 62)= -0.000000000000
  lambda( 63)= -0.000000000000
  lambda( 64)= -0.000000000000
  lambda( 65)= -0.000000000000
  lambda( 66)= -0.000000000000
  lambda( 67)= -0.000000000000
  lambda( 68)= -0.000000000000
  lambda( 69)= -0.000000000000
  lambda( 70)= -0.000000000000
  lambda( 71)= -0.000000000000
  lambda( 72)= -0.000000000000
  lambda( 73)= -0.000000000000
  lambda( 74)= -0.000000000000
  lambda( 75)= -0.000000000000
  lambda( 76)= -0.000000000000
  lambda( 77)= -0.000000000000
  lambda( 78)= -0.000000000000
  lambda( 79)= -0.000000000000
  lambda( 80)= -0.000000000000
  lambda( 81)= -0.000000000000
  lambda( 82)= -0.000000000000
  lambda( 83)= -0.000000000000
  lambda( 84)= -0.000000000000
  lambda( 85)= -0.000000000000
  lambda( 86)= -0.000000000000
  lambda( 87)= -0.000000000000
  lambda( 88)= -0.000000000000
  lambda( 89)= -0.000000000000
  lambda( 90)= -0.000000000000
  lambda( 91)= -0.000000000000
  lambda( 92)= -0.000000000000
  lambda( 93)= -0.000000000000
  lambda( 94)= -0.000000000000
  lambda( 95)= -0.000000000000
  lambda( 96)= -0.000000000000
  lambda( 97)= -0.000000000000
  lambda( 98)= -0.000000000000
  lambda( 99)= -0.000000000000
  lambda(100)= -0.000000000000
  lambda(101)= -0.000000000000
  lambda(102)= -0.000000000000
  lambda(103)= -0.000000000000
  lambda(104)=  0.000000000000
  lambda(105)=  0.000000000000
  lambda(106)=  0.000000000000
  lambda(107)=  0.000000000000
  lambda(108)=  0.000000000000
  lambda(109)=  0.000000000000
  lambda(110)=  0.000000000000
  lambda(111)=  0.000000000000
  lambda(112)=  0.000000000000
  lambda(113)=  0.000000000000
  lambda(114)=  0.000000000000
  lambda(115)=  0.000000000000
  lambda(116)=  0.000000000000
  lambda(117)=  0.000000000000
  lambda(118)=  0.000000000000
  lambda(119)=  0.000000000000
  lambda(120)=  0.000000000000
  lambda(121)=  0.000000000000
  lambda(122)=  0.000000000000
  lambda(123)=  0.000000000000
  lambda(124)=  0.000000000000
  lambda(125)=  0.000000000000
  lambda(126)=  0.000000000000
  lambda(127)=  0.000000000000
  lambda(128)=  0.000000000000
  lambda(129)=  0.000000000000
  lambda(130)=  0.000000000000
  lambda(131)=  0.000000000000
  lambda(132)=  0.000000000000
  lambda(133)=  0.000000000000
  lambda(134)=  0.000000000000
  lambda(135)=  0.000000000000
  lambda(136)=  0.000000000000
  lambda(137)=  0.000000000000
  lambda(138)=  0.000000000000
  lambda(139)=  0.000000000000
  lambda(140)=  0.000000000000
  lambda(141)=  0.000000000000
  lambda(142)=  0.000000000000
  lambda(143)=  0.000000000000
  lambda(144)=  0.000000000000
  lambda(145)=  0.000000000000
  lambda(146)=  0.000000000000
  lambda(147)=  0.000000000000
  lambda(148)=  0.000000000000
  lambda(149)=  0.000000000000
  lambda(150)=  0.000000000000
  lambda(151)=  0.000000000000
  lambda(152)=  0.000000000000
  lambda(153)=  0.000000000000
  lambda(154)=  0.000000000000
  lambda(155)=  0.000000000000
  lambda(156)=  0.000000000000
  lambda(157)=  0.000000000000
  lambda(158)=  0.000000000000
  lambda(159)=  0.000000000000
  lambda(160)=  0.000000000000
  lambda(161)=  0.000000000000
  lambda(162)=  0.000000000000
  lambda(163)=  0.000000000000
  lambda(164)=  0.000000000000
  lambda(165)=  0.000000000000
  lambda(166)=  0.000000000000
  lambda(167)=  0.000000000000
  lambda(168)=  0.000000000000
  lambda(169)=  0.000000000000
  lambda(170)=  0.000000000000
  lambda(171)=  0.000000000000
  lambda(172)=  0.000000000000
  lambda(173)=  0.000000000000
  lambda(174)=  0.000000000000
  lambda(175)=  0.000000000000
  lambda(176)=  0.000000000000
  lambda(177)=  0.000000000000
  lambda(178)=  0.000000000000
  lambda(179)=  0.000000000000
  lambda(180)=  0.000000000000
  lambda(181)=  0.000000000000
  lambda(182)=  0.000000000000
  lambda(183)=  0.000000000000
  lambda(184)=  0.000000000000
  lambda(185)=  0.000000000000
  lambda(186)=  0.000000000000
  lambda(187)=  0.000000000000
  lambda(188)=  0.000000000000
  lambda(189)=  0.000000000000
  lambda(190)=  0.000000000000
  lambda(191)=  0.000000000000
  lambda(192)=  0.000000000000
  lambda(193)=  0.000000000000
  lambda(194)=  0.000000000000
  lambda(195)=  0.000000000000
  lambda(196)=  0.000000000000
  lambda(197)=  0.000000000000
  lambda(198)=  0.000000000000
  lambda(199)=  0.000000000000
  lambda(200)=  0.000000000000
  lambda(201)=  0.000000000000
  lambda(202)=  0.000001736257
  lambda(203)=  0.000002652426
  lambda(204)=  0.000003942319
  lambda(205)=  0.000004058224
  lambda(206)=  0.000014918856
  lambda(207)=  0.000057069899
  lambda(208)=  0.000147600587
  lambda(209)=  0.000176458824
  lambda(210)=  0.000364334243
  lambda(211)=  0.000383943742
  lambda(212)=  0.000498220936
  lambda(213)=  0.000558145717
  lambda(214)=  0.000900163535
  lambda(215)=  0.000941795802
  lambda(216)=  0.001022547949
  lambda(217)=  0.001139294203
  lambda(218)=  0.001531279736
  lambda(219)=  0.001691911765
  lambda(220)=  0.001721368839
  lambda(221)=  0.001901616487
  lambda(222)=  0.002408914864
  lambda(223)=  0.002659364653
  lambda(224)=  0.002781501496
  lambda(225)=  0.003166395522
  lambda(226)=  0.003212971265
  lambda(227)=  0.003436943093
  lambda(228)=  0.004108864955
  lambda(229)=  0.004438115917
  lambda(230)=  0.004873244682
  lambda(231)=  0.005689076374
  lambda(232)=  0.005839397986
  lambda(233)=  0.007865557835
  lambda(234)=  0.008663107976
  lambda(235)=  0.008897783512
  lambda(236)=  0.009784670538
  lambda(237)=  0.009882241951
  lambda(238)=  0.010855243327
  lambda(239)=  0.010972553575
  lambda(240)=  0.011403142584
  lambda(241)=  0.011796277003
  lambda(242)=  0.012258066604
  lambda(243)=  0.012300479043
  lambda(244)=  0.012674353827
  lambda(245)=  0.013267438793
  lambda(246)=  0.013504962097
  lambda(247)=  0.013826134212
  lambda(248)=  0.014542355166
  lambda(249)=  0.015475638196
  lambda(250)=  0.016153574044
  lambda(251)=  0.017478260093
  lambda(252)=  0.019202372464
  lambda(253)=  0.020215950070
  lambda(254)=  0.021479666484
  lambda(255)=  0.022257669612
  lambda(256)=  0.022771759860
  lambda(257)=  0.023919363644
  lambda(258)=  0.024760254951
  lambda(259)=  0.025915708581
  lambda(260)=  0.027456179678
  lambda(261)=  0.027668396893
  lambda(262)=  0.028366901107
  lambda(263)=  0.031921530041
  lambda(264)=  0.033026416331
  lambda(265)=  0.034249942631
  lambda(266)=  0.037265267300
  lambda(267)=  0.042273294044
  lambda(268)=  0.045160456158
  lambda(269)=  0.045995694514
  lambda(270)=  0.046729778305
  lambda(271)=  0.050017894269
  lambda(272)=  0.050619688401
  lambda(273)=  0.054222027750
  lambda(274)=  0.057072719304
  lambda(275)=  0.057912903685
  lambda(276)=  0.058647985678
  lambda(277)=  0.058818933136
  lambda(278)=  0.060781569565
  lambda(279)=  0.061185616092
  lambda(280)=  0.061273943829
  lambda(281)=  0.062249304387
  lambda(282)=  0.062795897506
  lambda(283)=  0.063660737852
  lambda(284)=  0.063923378725
  lambda(285)=  0.067777890015
  lambda(286)=  0.067815865113
  lambda(287)=  0.068656613768
  lambda(288)=  0.071280986836
  lambda(289)=  0.082066643069
  lambda(290)=  0.082776589857
  lambda(291)=  0.083081079566
  lambda(292)=  0.089903497595
  lambda(293)=  0.094344582224
  lambda(294)=  0.097048998957
  lambda(295)=  0.100809597754
  lambda(296)=  0.104462100089
  lambda(297)=  0.106919198229
  lambda(298)=  0.109022166918
  lambda(299)=  0.109725724595
  lambda(300)=  0.114058824484
  lambda(301)=  0.119892774783
  lambda(302)=  0.120834458191
  lambda(303)=  0.136859762188
  lambda(304)=  0.137647922356
  lambda(305)=  0.143240551532
  lambda(306)=  0.146699673638
  lambda(307)=  0.158883187213
  lambda(308)=  0.162893203210
  lambda(309)=  0.164306016618
  lambda(310)=  0.167562550959
  lambda(311)=  0.171386953851
  lambda(312)=  0.179200474189
  lambda(313)=  0.185192982656
  lambda(314)=  0.187761019535
  lambda(315)=  0.242931515908
  lambda(316)=  1.000000000000
  lambda(317)=  1.000000000000
  lambda(318)=  1.000000000000
  lambda(319)=  1.000000000000
  lambda(320)=  1.000000000000
  lambda(321)=  1.000000000000
  lambda(322)=  1.000000000000
  lambda(323)=  1.000000000000
  lambda(324)=  1.000000000000
  lambda(325)=  1.000000000000
  lambda(326)=  1.000000000000
  lambda(327)=  1.000000000000
  lambda(328)=  1.000000000000
  lambda(329)=  1.000000000000
  lambda(330)=  1.000000000000
  lambda(331)=  1.000000000000
[...]
  WF centre and spread   95  (  5.169065,  0.991567,  3.500303 )     1.97868682
  WF centre and spread   96  (  5.169064,  0.980164,  3.310712 )     1.95225026
  WF centre and spread   97  (  5.169064,  1.011825,  3.310720 )     1.95193892
  WF centre and spread   98  (  8.620235,  0.997197, -0.119585 )     1.98449974
  WF centre and spread   99  (  8.619330,  0.985108,  0.065263 )     1.96939041
  WF centre and spread  100  (  8.618281,  1.014686,  0.063636 )     1.94591821
  WF centre and spread  101  (  8.608281,  1.008870,  3.499487 )     1.99858231
  WF centre and spread  102  (  8.605669,  0.998631,  3.310882 )     1.97204260
  WF centre and spread  103  (  8.610127,  1.020262,  3.311274 )     1.96475821
  WF centre and spread  104  ( 12.061150,  1.007342, -0.144638 )     2.00392660
  WF centre and spread  105  ( 12.061150,  0.995964,  0.029314 )     1.95375440
  WF centre and spread  106  ( 12.061150,  1.019864,  0.028934 )     1.95075173
  WF centre and spread  107  ( 12.061149,  1.009831,  3.554964 )     2.03252668
  WF centre and spread  108  ( 12.061150,  1.012413,  3.369813 )     1.95075274
  WF centre and spread  109  ( 12.061150,  1.026427,  3.371799 )     1.98752241
  WF centre and spread  110  ( 10.351806,  3.983584, -0.150418 )     1.98811811
  WF centre and spread  111  ( 10.347723,  3.972161,  0.030013 )     1.93904829
  WF centre and spread  112  ( 10.350557,  4.001570,  0.027709 )     1.93327643
  WF centre and spread  113  ( 10.349343,  3.982298,  3.526908 )     1.98441091
  WF centre and spread  114  ( 10.348593,  3.972573,  3.341973 )     1.94112512
  WF centre and spread  115  ( 10.349373,  4.000856,  3.343354 )     1.93719587
  WF centre and spread  116  (  8.628850,  6.952423, -0.144684 )     2.00454638
  WF centre and spread  117  (  8.623818,  6.944402,  0.029063 )     1.95144124
  WF centre and spread  118  (  8.626745,  6.973265,  0.029212 )     1.95276232
  WF centre and spread  119  (  8.630736,  6.951667,  3.554726 )     2.03351333
  WF centre and spread  120  (  8.629848,  6.936314,  3.371436 )     1.97772898
  WF centre and spread  121  (  8.640945,  6.969331,  3.370481 )     1.95944883
  WF centre and spread  122  (  6.902213,  9.950862, -0.036407 )     1.98947957
  WF centre and spread  123  (  6.908163,  9.936355,  0.139543 )     1.95880123
  WF centre and spread  124  (  6.903164,  9.977132,  0.142606 )     1.96379806
  WF centre and spread  125  (  6.921328,  9.962255,  3.538367 )     2.00104873
  WF centre and spread  126  (  7.006335,  9.964664,  3.414811 )     2.03359943
  WF centre and spread  127  (  6.953679, 10.032878,  3.388274 )     1.99552967
  WF centre and spread  128  (  3.435916,  9.950862, -0.036407 )     1.98947903
  WF centre and spread  129  (  3.429966,  9.936355,  0.139543 )     1.95880066
  WF centre and spread  130  (  3.434964,  9.977132,  0.142605 )     1.96379881
  WF centre and spread  131  (  3.416799,  9.962255,  3.538368 )     2.00104854
  WF centre and spread  132  (  3.331794,  9.964664,  3.414811 )     2.03359898
  WF centre and spread  133  (  3.384449, 10.032878,  3.388275 )     1.99553100
  WF centre and spread  134  ( -0.001782,  9.937591, -0.119590 )     1.98478111
  WF centre and spread  135  ( -0.002896,  9.925728,  0.060268 )     1.94090558
  WF centre and spread  136  ( -0.000690,  9.962098,  0.068615 )     1.97419213
  WF centre and spread  137  ( -0.018896,  9.942523,  3.499281 )     1.99910196
  WF centre and spread  138  ( -0.008669,  9.928170,  3.313729 )     1.96414820
  WF centre and spread  139  ( -0.021335,  9.968525,  3.308667 )     1.97180343
  WF centre and spread  140  ( -3.444261,  9.937591, -0.119590 )     1.98478104
  WF centre and spread  141  ( -3.443147,  9.925728,  0.060268 )     1.94090498
  WF centre and spread  142  ( -3.445353,  9.962098,  0.068615 )     1.97419244
  WF centre and spread  143  ( -3.427147,  9.942523,  3.499281 )     1.99910236
  WF centre and spread  144  ( -3.437373,  9.928170,  3.313729 )     1.96414734
  WF centre and spread  145  ( -3.424707,  9.968525,  3.308667 )     1.97180324
  WF centre and spread  146  (  6.899952,  3.977635, -0.119574 )     1.98495295
  WF centre and spread  147  (  6.893104,  3.965501,  0.067855 )     1.96281271
  WF centre and spread  148  (  6.900922,  3.997633,  0.061013 )     1.95211735
  WF centre and spread  149  (  6.903168,  3.961075,  3.499329 )     1.99932359
  WF centre and spread  150  (  6.896217,  3.948444,  3.308783 )     1.96849507
  WF centre and spread  151  (  6.904379,  3.986653,  3.313560 )     1.96726222
  WF centre and spread  152  (  5.169064,  6.948424, -0.036544 )     1.98958966
  WF centre and spread  153  (  5.169064,  6.932802,  0.144257 )     1.96700841
  WF centre and spread  154  (  5.169064,  6.965400,  0.138025 )     1.95584122
  WF centre and spread  155  (  5.169064,  6.926057,  3.538264 )     2.00124535
  WF centre and spread  156  (  5.169064,  6.875624,  3.373320 )     1.97677439
  WF centre and spread  157  (  5.169064,  6.852183,  3.429587 )     2.05599854
  WF centre and spread  158  (  1.709278,  6.952423, -0.144684 )     2.00454601
  WF centre and spread  159  (  1.714311,  6.944402,  0.029063 )     1.95144140
  WF centre and spread  160  (  1.711384,  6.973266,  0.029212 )     1.95276250
  WF centre and spread  161  (  1.707391,  6.951667,  3.554726 )     2.03351343
  WF centre and spread  162  (  1.708281,  6.936314,  3.371436 )     1.97772926
  WF centre and spread  163  (  1.697184,  6.969331,  3.370481 )     1.95944956
  WF centre and spread  164  (  3.438176,  3.977635, -0.119574 )     1.98495236
  WF centre and spread  165  (  3.445024,  3.965501,  0.067855 )     1.96281172
  WF centre and spread  166  (  3.437206,  3.997633,  0.061013 )     1.95211661
  WF centre and spread  167  (  3.434960,  3.961074,  3.499330 )     1.99932315
  WF centre and spread  168  (  3.441911,  3.948444,  3.308783 )     1.96849501
  WF centre and spread  169  (  3.433749,  3.986653,  3.313560 )     1.96726243
  WF centre and spread  170  ( -0.013678,  3.983584, -0.150418 )     1.98811804
  WF centre and spread  171  ( -0.009595,  3.972161,  0.030013 )     1.93904866
  WF centre and spread  172  ( -0.012429,  4.001570,  0.027709 )     1.93327561
  WF centre and spread  173  ( -0.011215,  3.982298,  3.526908 )     1.98441077
  WF centre and spread  174  ( -0.010465,  3.972573,  3.341973 )     1.94112542
  WF centre and spread  175  ( -0.011245,  4.000856,  3.343354 )     1.93719541
  WF centre and spread  176  ( -1.723021,  6.944725, -0.150361 )     1.98862846
  WF centre and spread  177  ( -1.723022,  6.934982,  0.026591 )     1.93044626
  WF centre and spread  178  ( -1.723021,  6.969017,  0.031085 )     1.94136297
  WF centre and spread  179  ( -1.723021,  6.947542,  3.526920 )     1.98464330
  WF centre and spread  180  ( -1.723022,  6.937431,  3.343992 )     1.93544705
  WF centre and spread  181  ( -1.723021,  6.966934,  3.341316 )     1.94269671
  Sum of centres and spreads (646.133018,928.139578,323.015743 )   331.81848113
 
         Spreads (Ang^2)       Omega I      =   314.821249837
        ================       Omega D      =     0.000169240
                               Omega OD     =    16.997061914
    Final Spread (Ang^2)       Omega Total  =   331.818480992
 ------------------------------------------------------------------------------
 Final centres (translated to home cell for writing xyz file)
  WF centre    1  (  5.169064,  9.004980,  4.639301 )
  WF centre    2  (  5.169065,  8.980177,  4.766810 )
  WF centre    3  (  5.169064,  8.833931,  4.756309 )
  WF centre    4  (  5.169065,  9.128403,  4.684963 )
  WF centre    5  (  5.169064,  8.820358,  4.676010 )
  WF centre    6  ( -0.043769,  0.067676,  1.714063 )
  WF centre    7  ( -0.036685,  0.058563,  1.701264 )
  WF centre    8  ( -0.040208,  0.073416,  1.715129 )
  WF centre    9  ( -0.038684,  0.224077,  1.707353 )
  WF centre   10  ( -0.057429, -0.091801,  1.708773 )
  WF centre   11  (  3.440721, -0.010218,  1.684081 )
  WF centre   12  (  3.441621, -0.015105,  1.684240 )
  WF centre   13  (  3.438916,  0.008511,  1.682721 )
  WF centre   14  (  3.443233,  0.153297,  1.683850 )
  WF centre   15  (  3.412028, -0.165594,  1.683977 )
  WF centre   16  (  6.897407, -0.010218,  1.684081 )
  WF centre   17  (  6.896507, -0.015105,  1.684240 )
  WF centre   18  (  6.899213,  0.008511,  1.682722 )
  WF centre   19  (  6.894895,  0.153299,  1.683850 )
  WF centre   20  (  6.926099, -0.165596,  1.683977 )
  WF centre   21  ( 10.381896,  0.067676,  1.714063 )
  WF centre   22  ( 10.374813,  0.058563,  1.701264 )
  WF centre   23  ( 10.378336,  0.073416,  1.715129 )
  WF centre   24  ( 10.376812,  0.224075,  1.707354 )
  WF centre   25  ( 10.395556, -0.091802,  1.708773 )
  WF centre   26  (  8.673697,  3.011629,  1.681958 )
  WF centre   27  (  8.663521,  3.004819,  1.682981 )
  WF centre   28  (  8.670038,  3.023644,  1.682362 )
  WF centre   29  (  8.669721,  3.180566,  1.680446 )
  WF centre   30  (  8.681203,  2.866147,  1.680436 )
  WF centre   31  (  6.978404,  5.965070,  1.713890 )
  WF centre   32  (  6.964670,  5.959117,  1.712824 )
  WF centre   33  (  6.972046,  5.979100,  1.704219 )
  WF centre   34  (  6.952800,  6.133904,  1.709096 )
  WF centre   35  (  6.987244,  5.830713,  1.706547 )
  WF centre   36  (  5.169064,  8.947517,  1.743599 )
  WF centre   37  (  5.169064,  8.943164,  1.768000 )
  WF centre   38  (  5.169064,  8.962936,  1.767527 )
  WF centre   39  (  5.169062,  9.102718,  1.736615 )
  WF centre   40  (  5.169065,  8.810613,  1.736070 )
  WF centre   41  (  1.681949,  8.873944,  1.712827 )
  WF centre   42  (  1.686461,  8.873337,  1.712161 )
  WF centre   43  (  1.684054,  8.900222,  1.706204 )
  WF centre   44  (  1.710383,  9.030742,  1.707200 )
  WF centre   45  (  1.674047,  8.735901,  1.708118 )
  WF centre   46  ( -1.723020,  8.880320,  1.682274 )
  WF centre   47  ( -1.723021,  8.878511,  1.682208 )
  WF centre   48  ( -1.723021,  8.908390,  1.683303 )
  WF centre   49  ( -1.723022,  9.040709,  1.680306 )
  WF centre   50  ( -1.723018,  8.732800,  1.680101 )
  WF centre   51  ( -5.127991,  8.873943,  1.712827 )
  WF centre   52  ( -5.132503,  8.873337,  1.712161 )
  WF centre   53  ( -5.130097,  8.900222,  1.706204 )
  WF centre   54  ( -5.156425,  9.030743,  1.707200 )
  WF centre   55  ( -5.120089,  8.735900,  1.708118 )
  WF centre   56  (  5.169064,  2.985325,  1.684704 )
  WF centre   57  (  5.169064,  2.981579,  1.681816 )
  WF centre   58  (  5.169064,  3.000539,  1.684693 )
  WF centre   59  (  5.169064,  3.175040,  1.683980 )
  WF centre   60  (  5.169063,  2.843106,  1.683695 )
  WF centre   61  (  3.359724,  5.965070,  1.713890 )
  WF centre   62  (  3.373458,  5.959117,  1.712824 )
  WF centre   63  (  3.366082,  5.979099,  1.704219 )
  WF centre   64  (  3.385329,  6.133904,  1.709096 )
  WF centre   65  (  3.350882,  5.830714,  1.706547 )
  WF centre   66  ( -0.010711,  5.958344,  1.690878 )
  WF centre   67  ( -0.010831,  5.950479,  1.687937 )
  WF centre   68  ( -0.011698,  5.974032,  1.688052 )
  WF centre   69  ( -0.008126,  6.102465,  1.687956 )
  WF centre   70  ( -0.024588,  5.821613,  1.688616 )
  WF centre   71  (  1.664432,  3.011629,  1.681958 )
  WF centre   72  (  1.674607,  3.004819,  1.682981 )
  WF centre   73  (  1.668090,  3.023644,  1.682362 )
  WF centre   74  (  1.668408,  3.180564,  1.680447 )
  WF centre   75  (  1.656929,  2.866148,  1.680436 )
  WF centre   76  ( -1.723021,  2.992077,  1.691224 )
  WF centre   77  ( -1.723021,  2.986363,  1.687939 )
  WF centre   78  ( -1.723021,  3.008431,  1.687695 )
  WF centre   79  ( -1.723019,  3.151060,  1.688956 )
  WF centre   80  ( -1.723022,  2.861412,  1.687642 )
  WF centre   81  ( -3.435332,  5.958345,  1.690878 )
  WF centre   82  ( -3.435212,  5.950479,  1.687937 )
  WF centre   83  ( -3.434345,  5.974032,  1.688052 )
  WF centre   84  ( -3.437917,  6.102466,  1.687956 )
  WF centre   85  ( -3.421454,  5.821614,  1.688616 )
  WF centre   86  (  1.717893,  0.997197, -0.119586 )
  WF centre   87  (  1.718798,  0.985108,  0.065263 )
  WF centre   88  (  1.719847,  1.014685,  0.063636 )
  WF centre   89  (  1.729847,  1.008870,  3.499487 )
  WF centre   90  (  1.732460,  0.998631,  3.310882 )
  WF centre   91  (  1.728002,  1.020262,  3.311274 )
  WF centre   92  (  5.169065,  0.991746, -0.125081 )
  WF centre   93  (  5.169064,  0.979820,  0.058339 )
  WF centre   94  (  5.169064,  1.011982,  0.058333 )
  WF centre   95  (  5.169065,  0.991567,  3.500303 )
  WF centre   96  (  5.169064,  0.980164,  3.310712 )
  WF centre   97  (  5.169064,  1.011825,  3.310720 )
  WF centre   98  (  8.620235,  0.997197, -0.119585 )
  WF centre   99  (  8.619330,  0.985108,  0.065263 )
  WF centre  100  (  8.618281,  1.014686,  0.063636 )
  WF centre  101  (  8.608281,  1.008870,  3.499487 )
  WF centre  102  (  8.605669,  0.998631,  3.310882 )
  WF centre  103  (  8.610127,  1.020262,  3.311274 )
  WF centre  104  ( 12.061150,  1.007342, -0.144638 )
  WF centre  105  ( 12.061150,  0.995964,  0.029314 )
  WF centre  106  ( 12.061150,  1.019864,  0.028934 )
  WF centre  107  ( 12.061149,  1.009831,  3.554964 )
  WF centre  108  ( 12.061150,  1.012413,  3.369813 )
  WF centre  109  ( 12.061150,  1.026427,  3.371799 )
  WF centre  110  ( 10.351806,  3.983584, -0.150418 )
  WF centre  111  ( 10.347723,  3.972161,  0.030013 )
  WF centre  112  ( 10.350557,  4.001570,  0.027709 )
  WF centre  113  ( 10.349343,  3.982298,  3.526908 )
  WF centre  114  ( 10.348593,  3.972573,  3.341973 )
  WF centre  115  ( 10.349373,  4.000856,  3.343354 )
  WF centre  116  (  8.628850,  6.952423, -0.144684 )
  WF centre  117  (  8.623818,  6.944402,  0.029063 )
  WF centre  118  (  8.626745,  6.973265,  0.029212 )
  WF centre  119  (  8.630736,  6.951667,  3.554726 )
  WF centre  120  (  8.629848,  6.936314,  3.371436 )
  WF centre  121  (  8.640945,  6.969331,  3.370481 )
  WF centre  122  (  6.902213,  9.950862, -0.036407 )
  WF centre  123  (  6.908163,  9.936355,  0.139543 )
  WF centre  124  (  6.903164,  9.977132,  0.142606 )
  WF centre  125  (  6.921328,  9.962255,  3.538367 )
  WF centre  126  (  7.006335,  9.964664,  3.414811 )
  WF centre  127  (  6.953679, 10.032878,  3.388274 )
  WF centre  128  (  3.435916,  9.950862, -0.036407 )
  WF centre  129  (  3.429966,  9.936355,  0.139543 )
  WF centre  130  (  3.434964,  9.977132,  0.142605 )
  WF centre  131  (  3.416799,  9.962255,  3.538368 )
  WF centre  132  (  3.331794,  9.964664,  3.414811 )
  WF centre  133  (  3.384449, 10.032878,  3.388275 )
  WF centre  134  ( -0.001782,  9.937591, -0.119590 )
  WF centre  135  ( -0.002896,  9.925728,  0.060268 )
  WF centre  136  ( -0.000690,  9.962098,  0.068615 )
  WF centre  137  ( -0.018896,  9.942523,  3.499281 )
  WF centre  138  ( -0.008669,  9.928170,  3.313729 )
  WF centre  139  ( -0.021335,  9.968525,  3.308667 )
  WF centre  140  ( -3.444261,  9.937591, -0.119590 )
  WF centre  141  ( -3.443147,  9.925728,  0.060268 )
  WF centre  142  ( -3.445353,  9.962098,  0.068615 )
  WF centre  143  ( -3.427147,  9.942523,  3.499281 )
  WF centre  144  ( -3.437373,  9.928170,  3.313729 )
  WF centre  145  ( -3.424707,  9.968525,  3.308667 )
  WF centre  146  (  6.899952,  3.977635, -0.119574 )
  WF centre  147  (  6.893104,  3.965501,  0.067855 )
  WF centre  148  (  6.900922,  3.997633,  0.061013 )
  WF centre  149  (  6.903168,  3.961075,  3.499329 )
  WF centre  150  (  6.896217,  3.948444,  3.308783 )
  WF centre  151  (  6.904379,  3.986653,  3.313560 )
  WF centre  152  (  5.169064,  6.948424, -0.036544 )
  WF centre  153  (  5.169064,  6.932802,  0.144257 )
  WF centre  154  (  5.169064,  6.965400,  0.138025 )
  WF centre  155  (  5.169064,  6.926057,  3.538264 )
  WF centre  156  (  5.169064,  6.875624,  3.373320 )
  WF centre  157  (  5.169064,  6.852183,  3.429587 )
  WF centre  158  (  1.709278,  6.952423, -0.144684 )
  WF centre  159  (  1.714311,  6.944402,  0.029063 )
  WF centre  160  (  1.711384,  6.973266,  0.029212 )
  WF centre  161  (  1.707391,  6.951667,  3.554726 )
  WF centre  162  (  1.708281,  6.936314,  3.371436 )
  WF centre  163  (  1.697184,  6.969331,  3.370481 )
  WF centre  164  (  3.438176,  3.977635, -0.119574 )
  WF centre  165  (  3.445024,  3.965501,  0.067855 )
  WF centre  166  (  3.437206,  3.997633,  0.061013 )
  WF centre  167  (  3.434960,  3.961074,  3.499330 )
  WF centre  168  (  3.441911,  3.948444,  3.308783 )
  WF centre  169  (  3.433749,  3.986653,  3.313560 )
  WF centre  170  ( -0.013678,  3.983584, -0.150418 )
  WF centre  171  ( -0.009595,  3.972161,  0.030013 )
  WF centre  172  ( -0.012429,  4.001570,  0.027709 )
  WF centre  173  ( -0.011215,  3.982298,  3.526908 )
  WF centre  174  ( -0.010465,  3.972573,  3.341973 )
  WF centre  175  ( -0.011245,  4.000856,  3.343354 )
  WF centre  176  ( -1.723021,  6.944725, -0.150361 )
  WF centre  177  ( -1.723022,  6.934982,  0.026591 )
  WF centre  178  ( -1.723021,  6.969017,  0.031085 )
  WF centre  179  ( -1.723021,  6.947542,  3.526920 )
  WF centre  180  ( -1.723022,  6.937431,  3.343992 )
  WF centre  181  ( -1.723021,  6.966934,  3.341316 )
 ------------------------------------------------------------------------------
 

 Wannier centres written to file 1Fe_Nbconf.down_centres.xyz
  
  Omega Invariant:   1-s^2 =   314.821249837 (Ang^2)
                   -2log s =   320.574455690 (Ang^2)
                    acos^2 =   318.621964322 (Ang^2)
 Time for wannierise           46.491 (sec)

 Writing checkpoint file 1Fe_Nbconf.down.chk... done

 *---------------------------------------------------------------------------*
 |                               PLOTTING                                    |
 *---------------------------------------------------------------------------*
 
   19 lattice points in Wigner-Seitz supercell:

      vector  -2  -2   0   degeneracy:  2
      vector  -2  -1   0   degeneracy:  1
      vector  -2   0   0   degeneracy:  2
      vector  -1  -2   0   degeneracy:  1
      vector  -1  -1   0   degeneracy:  1
      vector  -1   0   0   degeneracy:  1
      vector  -1   1   0   degeneracy:  1
      vector   0  -2   0   degeneracy:  2
      vector   0  -1   0   degeneracy:  1
      vector   0   0   0   degeneracy:  1
      vector   0   1   0   degeneracy:  1
      vector   0   2   0   degeneracy:  2
      vector   1  -1   0   degeneracy:  1
      vector   1   0   0   degeneracy:  1
      vector   1   1   0   degeneracy:  1
      vector   1   2   0   degeneracy:  1
      vector   2   0   0   degeneracy:  2
      vector   2   1   0   degeneracy:  1
      vector   2   2   0   degeneracy:  2
  tot =       16.000
  mp_grid product =           16
 
 Calculating interpolated band-structure
 
 Time to calculate interpolated band structure      23.261 (sec)
 
 Time for plotting             26.950 (sec)
 Total Execution Time         419.091 (sec)

 *===========================================================================*
 |                             TIMING INFORMATION                            |
 *===========================================================================*
 |    Tag                                                Ncalls      Time (s)|
 |---------------------------------------------------------------------------|
 |kmesh: get                                        :         1         0.022|
 |overlap: allocate                                 :         1         0.006|
 |overlap: read                                     :         1        62.240|
 |dis: main                                         :         1       283.279|
 |wann: main                                        :         1        46.491|
 |plot: main                                        :         1        26.950|
 *---------------------------------------------------------------------------*
 
 All done: wannier90 exiting
