 
             +---------------------------------------------------+
             |                                                   |
             |                   WANNIER90                       |
             |                                                   |
             +---------------------------------------------------+
             |                                                   |
             |        Welcome to the Maximally-Localized         |
             |        Generalized Wannier Functions code         |
             |            http://www.wannier.org                 |
             |                                                   |
             |                                                   |
             |  Wannier90 Developer Group:                       |
             |    Giovanni Pizzi    (EPFL)                       |
             |    Valerio Vitale    (Cambridge)                  |
             |    David Vanderbilt  (Rutgers University)         |
             |    Nicola Marzari    (EPFL)                       |
             |    Ivo Souza         (Universidad del Pais Vasco) |
             |    Arash A. Mostofi  (Imperial College London)    |
             |    Jonathan R. Yates (University of Oxford)       |
             |                                                   |
             |  For the full list of Wannier90 3.x authors,      |
             |  please check the code documentation and the      |
             |  README on the GitHub page of the code            |
             |                                                   |
             |                                                   |
             |  Please cite                                      |
             |                                                   |
             |  [ref] "Wannier90 as a community code:            |
             |        new features and applications",            |
             |        G. Pizzi et al., J. Phys. Cond. Matt. 32,  |
             |        165902 (2020).                             |
             |        http://doi.org/10.1088/1361-648X/ab51ff    |
             |                                                   |
             |  in any publications arising from the use of      |
             |  this code. For the method please cite            |
             |                                                   |
             |  [ref] "Maximally Localized Generalised Wannier   |
             |         Functions for Composite Energy Bands"     |
             |         N. Marzari and D. Vanderbilt              |
             |         Phys. Rev. B 56 12847 (1997)              |
             |                                                   |
             |  [ref] "Maximally Localized Wannier Functions     |
             |         for Entangled Energy Bands"               |
             |         I. Souza, N. Marzari and D. Vanderbilt    |
             |         Phys. Rev. B 65 035109 (2001)             |
             |                                                   |
             |                                                   |
             | Copyright (c) 1996-2020                           |
             |        The Wannier90 Developer Group and          |
             |        individual contributors                    |
             |                                                   |
             |      Release: 3.1.0        5th March    2020      |
             |                                                   |
             | This program is free software; you can            |
             | redistribute it and/or modify it under the terms  |
             | of the GNU General Public License as published by |
             | the Free Software Foundation; either version 2 of |
             | the License, or (at your option) any later version|
             |                                                   |
             | This program is distributed in the hope that it   |
             | will be useful, but WITHOUT ANY WARRANTY; without |
             | even the implied warranty of MERCHANTABILITY or   |
             | FITNESS FOR A PARTICULAR PURPOSE. See the GNU     |
             | General Public License for more details.          |
             |                                                   |
             | You should have received a copy of the GNU General|
             | Public License along with this program; if not,   |
             | write to the Free Software Foundation, Inc.,      |
             | 675 Mass Ave, Cambridge, MA 02139, USA.           |
             |                                                   |
             +---------------------------------------------------+
             |    Execution started on  9Nov2023 at 10:24:01     |
             +---------------------------------------------------+
 
 ******************************************************************************
 * -> Using CODATA 2006 constant values                                       *
 *    (http://physics.nist.gov/cuu/Constants/index.html)                      *
 * -> Using Bohr value from CODATA                                            *
 ******************************************************************************
 

 Running in parallel on  40 CPUs

 
                                    ------
                                    SYSTEM
                                    ------
 
                              Lattice Vectors (Ang)
                    a_1    13.784171   0.000000   0.000000
                    a_2    -6.892085  11.937442   0.000000
                    a_3     0.000000   0.000000  23.631430
 
                   Unit Cell Volume:    3888.49848  (Ang^3)
 
                        Reciprocal-Space Vectors (Ang^-1)
                    b_1     0.455826   0.263171   0.000000
                    b_2     0.000000   0.526343   0.000000
                    b_3     0.000000   0.000000   0.265883
  
 *----------------------------------------------------------------------------*
 |   Site       Fractional Coordinate          Cartesian Coordinate (Ang)     |
 +----------------------------------------------------------------------------+
 | Nb   1   0.00000   0.00000   0.07097   |    0.00000   0.00000   1.67715    |
 | Nb   2   0.25000   0.00000   0.07097   |    3.44604   0.00000   1.67715    |
 | Nb   3   0.50000   0.00000   0.07097   |    6.89209   0.00000   1.67715    |
 | Nb   4   0.75000   0.00000   0.07097   |   10.33813   0.00000   1.67715    |
 | Nb   5   0.75000   0.25000   0.07097   |    8.61511   2.98436   1.67715    |
 | Nb   6   0.75000   0.50000   0.07097   |    6.89209   5.96872   1.67715    |
 | Nb   7   0.75000   0.75000   0.07097   |    5.16906   8.95308   1.67715    |
 | Nb   8   0.50000   0.75000   0.07097   |    1.72302   8.95308   1.67715    |
 | Nb   9   0.25000   0.75000   0.07097   |   -1.72302   8.95308   1.67715    |
 | Nb  10   0.00000   0.75000   0.07097   |   -5.16906   8.95308   1.67715    |
 | Nb  11   0.50000   0.25000   0.07097   |    5.16906   2.98436   1.67715    |
 | Nb  12   0.50000   0.50000   0.07097   |    3.44604   5.96872   1.67715    |
 | Nb  13   0.25000   0.50000   0.07097   |    0.00000   5.96872   1.67715    |
 | Nb  14   0.25000   0.25000   0.07097   |    1.72302   2.98436   1.67715    |
 | Nb  15   0.00000   0.25000   0.07097   |   -1.72302   2.98436   1.67715    |
 | Nb  16   0.00000   0.50000   0.07097   |   -3.44604   5.96872   1.67715    |
 | Se   1   0.16667   0.08333   0.00000   |    1.72302   0.99479   0.00000    |
 | Se   2   0.16667   0.08333   0.14194   |    1.72302   0.99479   3.35430    |
 | Se   3   0.41667   0.08333   0.00000   |    5.16906   0.99479   0.00000    |
 | Se   4   0.41667   0.08333   0.14194   |    5.16906   0.99479   3.35430    |
 | Se   5   0.66667   0.08333   0.00000   |    8.61511   0.99479   0.00000    |
 | Se   6   0.66667   0.08333   0.14194   |    8.61511   0.99479   3.35430    |
 | Se   7   0.91667   0.08333   0.00000   |   12.06115   0.99479   0.00000    |
 | Se   8   0.91667   0.08333   0.14194   |   12.06115   0.99479   3.35430    |
 | Se   9   0.91667   0.33333   0.00000   |   10.33813   3.97915   0.00000    |
 | Se  10   0.91667   0.33333   0.14194   |   10.33813   3.97915   3.35430    |
 | Se  11   0.91667   0.58333   0.00000   |    8.61511   6.96351   0.00000    |
 | Se  12   0.91667   0.58333   0.14194   |    8.61511   6.96351   3.35430    |
 | Se  13   0.91667   0.83333   0.00000   |    6.89209   9.94787   0.00000    |
 | Se  14   0.91667   0.83333   0.14194   |    6.89209   9.94787   3.35430    |
 | Se  15   0.66667   0.83333   0.00000   |    3.44604   9.94787   0.00000    |
 | Se  16   0.66667   0.83333   0.14194   |    3.44604   9.94787   3.35430    |
 | Se  17   0.41667   0.83333   0.00000   |    0.00000   9.94787   0.00000    |
 | Se  18   0.41667   0.83333   0.14194   |    0.00000   9.94787   3.35430    |
 | Se  19   0.16667   0.83333   0.00000   |   -3.44604   9.94787   0.00000    |
 | Se  20   0.16667   0.83333   0.14194   |   -3.44604   9.94787   3.35430    |
 | Se  21   0.66667   0.33333   0.00000   |    6.89209   3.97915   0.00000    |
 | Se  22   0.66667   0.33333   0.14194   |    6.89209   3.97915   3.35430    |
 | Se  23   0.66667   0.58333   0.00000   |    5.16906   6.96351   0.00000    |
 | Se  24   0.66667   0.58333   0.14194   |    5.16906   6.96351   3.35430    |
 | Se  25   0.41667   0.58333   0.00000   |    1.72302   6.96351   0.00000    |
 | Se  26   0.41667   0.58333   0.14194   |    1.72302   6.96351   3.35430    |
 | Se  27   0.41667   0.33333   0.00000   |    3.44604   3.97915   0.00000    |
 | Se  28   0.41667   0.33333   0.14194   |    3.44604   3.97915   3.35430    |
 | Se  29   0.16667   0.33333   0.00000   |    0.00000   3.97915   0.00000    |
 | Se  30   0.16667   0.33333   0.14194   |    0.00000   3.97915   3.35430    |
 | Se  31   0.16667   0.58333   0.00000   |   -1.72302   6.96351   0.00000    |
 | Se  32   0.16667   0.58333   0.14194   |   -1.72302   6.96351   3.35430    |
 *----------------------------------------------------------------------------*
                                -----------
                                PROJECTIONS
                                -----------
  
 +----------------------------------------------------------------------------+
 |     Frac. Coord.   l mr  r        z-axis               x-axis          Z/a |
 +----------------------------------------------------------------------------+
 |  0.00  0.00  0.07  2  1  1  0.000  0.000  1.000  1.000  0.000  0.000   1.0 |
 |  0.00  0.00  0.07  2  1  1  0.000  0.000  1.000  1.000  0.000  0.000   1.0 |
 |  0.00  0.00  0.07  2  2  1  0.000  0.000  1.000  1.000  0.000  0.000   1.0 |
 |  0.00  0.00  0.07  2  2  1  0.000  0.000  1.000  1.000  0.000  0.000   1.0 |
 |  0.00  0.00  0.07  2  3  1  0.000  0.000  1.000  1.000  0.000  0.000   1.0 |
 |  0.00  0.00  0.07  2  3  1  0.000  0.000  1.000  1.000  0.000  0.000   1.0 |
 |  0.00  0.00  0.07  2  4  1  0.000  0.000  1.000  1.000  0.000  0.000   1.0 |
 |  0.00  0.00  0.07  2  4  1  0.000  0.000  1.000  1.000  0.000  0.000   1.0 |
 |  0.00  0.00  0.07  2  5  1  0.000  0.000  1.000  1.000  0.000  0.000   1.0 |
 |  0.00  0.00  0.07  2  5  1  0.000  0.000  1.000  1.000  0.000  0.000   1.0 |
 |  0.25  0.00  0.07  2  1  1  0.000  0.000  1.000  1.000  0.000  0.000   1.0 |
 |  0.25  0.00  0.07  2  1  1  0.000  0.000  1.000  1.000  0.000  0.000   1.0 |
 |  0.25  0.00  0.07  2  2  1  0.000  0.000  1.000  1.000  0.000  0.000   1.0 |
 |  0.25  0.00  0.07  2  2  1  0.000  0.000  1.000  1.000  0.000  0.000   1.0 |
 |  0.25  0.00  0.07  2  3  1  0.000  0.000  1.000  1.000  0.000  0.000   1.0 |
 |  0.25  0.00  0.07  2  3  1  0.000  0.000  1.000  1.000  0.000  0.000   1.0 |
 |  0.25  0.00  0.07  2  4  1  0.000  0.000  1.000  1.000  0.000  0.000   1.0 |
 |  0.25  0.00  0.07  2  4  1  0.000  0.000  1.000  1.000  0.000  0.000   1.0 |
 |  0.25  0.00  0.07  2  5  1  0.000  0.000  1.000  1.000  0.000  0.000   1.0 |
 |  0.25  0.00  0.07  2  5  1  0.000  0.000  1.000  1.000  0.000  0.000   1.0 |
 |  0.50  0.00  0.07  2  1  1  0.000  0.000  1.000  1.000  0.000  0.000   1.0 |
 |  0.50  0.00  0.07  2  1  1  0.000  0.000  1.000  1.000  0.000  0.000   1.0 |
 |  0.50  0.00  0.07  2  2  1  0.000  0.000  1.000  1.000  0.000  0.000   1.0 |
 |  0.50  0.00  0.07  2  2  1  0.000  0.000  1.000  1.000  0.000  0.000   1.0 |
 |  0.50  0.00  0.07  2  3  1  0.000  0.000  1.000  1.000  0.000  0.000   1.0 |
 |  0.50  0.00  0.07  2  3  1  0.000  0.000  1.000  1.000  0.000  0.000   1.0 |
 |  0.50  0.00  0.07  2  4  1  0.000  0.000  1.000  1.000  0.000  0.000   1.0 |
 |  0.50  0.00  0.07  2  4  1  0.000  0.000  1.000  1.000  0.000  0.000   1.0 |
 |  0.50  0.00  0.07  2  5  1  0.000  0.000  1.000  1.000  0.000  0.000   1.0 |
 |  0.50  0.00  0.07  2  5  1  0.000  0.000  1.000  1.000  0.000  0.000   1.0 |
 |  0.75  0.00  0.07  2  1  1  0.000  0.000  1.000  1.000  0.000  0.000   1.0 |
 |  0.75  0.00  0.07  2  1  1  0.000  0.000  1.000  1.000  0.000  0.000   1.0 |
 |  0.75  0.00  0.07  2  2  1  0.000  0.000  1.000  1.000  0.000  0.000   1.0 |
 |  0.75  0.00  0.07  2  2  1  0.000  0.000  1.000  1.000  0.000  0.000   1.0 |
 |  0.75  0.00  0.07  2  3  1  0.000  0.000  1.000  1.000  0.000  0.000   1.0 |
 |  0.75  0.00  0.07  2  3  1  0.000  0.000  1.000  1.000  0.000  0.000   1.0 |
 |  0.75  0.00  0.07  2  4  1  0.000  0.000  1.000  1.000  0.000  0.000   1.0 |
 |  0.75  0.00  0.07  2  4  1  0.000  0.000  1.000  1.000  0.000  0.000   1.0 |
 |  0.75  0.00  0.07  2  5  1  0.000  0.000  1.000  1.000  0.000  0.000   1.0 |
 |  0.75  0.00  0.07  2  5  1  0.000  0.000  1.000  1.000  0.000  0.000   1.0 |
 |  0.75  0.25  0.07  2  1  1  0.000  0.000  1.000  1.000  0.000  0.000   1.0 |
 |  0.75  0.25  0.07  2  1  1  0.000  0.000  1.000  1.000  0.000  0.000   1.0 |
 |  0.75  0.25  0.07  2  2  1  0.000  0.000  1.000  1.000  0.000  0.000   1.0 |
 |  0.75  0.25  0.07  2  2  1  0.000  0.000  1.000  1.000  0.000  0.000   1.0 |
 |  0.75  0.25  0.07  2  3  1  0.000  0.000  1.000  1.000  0.000  0.000   1.0 |
 |  0.75  0.25  0.07  2  3  1  0.000  0.000  1.000  1.000  0.000  0.000   1.0 |
 |  0.75  0.25  0.07  2  4  1  0.000  0.000  1.000  1.000  0.000  0.000   1.0 |
 |  0.75  0.25  0.07  2  4  1  0.000  0.000  1.000  1.000  0.000  0.000   1.0 |
 |  0.75  0.25  0.07  2  5  1  0.000  0.000  1.000  1.000  0.000  0.000   1.0 |
 |  0.75  0.25  0.07  2  5  1  0.000  0.000  1.000  1.000  0.000  0.000   1.0 |
 |  0.75  0.50  0.07  2  1  1  0.000  0.000  1.000  1.000  0.000  0.000   1.0 |
 |  0.75  0.50  0.07  2  1  1  0.000  0.000  1.000  1.000  0.000  0.000   1.0 |
 |  0.75  0.50  0.07  2  2  1  0.000  0.000  1.000  1.000  0.000  0.000   1.0 |
 |  0.75  0.50  0.07  2  2  1  0.000  0.000  1.000  1.000  0.000  0.000   1.0 |
 |  0.75  0.50  0.07  2  3  1  0.000  0.000  1.000  1.000  0.000  0.000   1.0 |
 |  0.75  0.50  0.07  2  3  1  0.000  0.000  1.000  1.000  0.000  0.000   1.0 |
 |  0.75  0.50  0.07  2  4  1  0.000  0.000  1.000  1.000  0.000  0.000   1.0 |
 |  0.75  0.50  0.07  2  4  1  0.000  0.000  1.000  1.000  0.000  0.000   1.0 |
 |  0.75  0.50  0.07  2  5  1  0.000  0.000  1.000  1.000  0.000  0.000   1.0 |
 |  0.75  0.50  0.07  2  5  1  0.000  0.000  1.000  1.000  0.000  0.000   1.0 |
 |  0.75  0.75  0.07  2  1  1  0.000  0.000  1.000  1.000  0.000  0.000   1.0 |
 |  0.75  0.75  0.07  2  1  1  0.000  0.000  1.000  1.000  0.000  0.000   1.0 |
 |  0.75  0.75  0.07  2  2  1  0.000  0.000  1.000  1.000  0.000  0.000   1.0 |
 |  0.75  0.75  0.07  2  2  1  0.000  0.000  1.000  1.000  0.000  0.000   1.0 |
 |  0.75  0.75  0.07  2  3  1  0.000  0.000  1.000  1.000  0.000  0.000   1.0 |
 |  0.75  0.75  0.07  2  3  1  0.000  0.000  1.000  1.000  0.000  0.000   1.0 |
 |  0.75  0.75  0.07  2  4  1  0.000  0.000  1.000  1.000  0.000  0.000   1.0 |
 |  0.75  0.75  0.07  2  4  1  0.000  0.000  1.000  1.000  0.000  0.000   1.0 |
 |  0.75  0.75  0.07  2  5  1  0.000  0.000  1.000  1.000  0.000  0.000   1.0 |
 |  0.75  0.75  0.07  2  5  1  0.000  0.000  1.000  1.000  0.000  0.000   1.0 |
 |  0.50  0.75  0.07  2  1  1  0.000  0.000  1.000  1.000  0.000  0.000   1.0 |
 |  0.50  0.75  0.07  2  1  1  0.000  0.000  1.000  1.000  0.000  0.000   1.0 |
 |  0.50  0.75  0.07  2  2  1  0.000  0.000  1.000  1.000  0.000  0.000   1.0 |
 |  0.50  0.75  0.07  2  2  1  0.000  0.000  1.000  1.000  0.000  0.000   1.0 |
 |  0.50  0.75  0.07  2  3  1  0.000  0.000  1.000  1.000  0.000  0.000   1.0 |
 |  0.50  0.75  0.07  2  3  1  0.000  0.000  1.000  1.000  0.000  0.000   1.0 |
 |  0.50  0.75  0.07  2  4  1  0.000  0.000  1.000  1.000  0.000  0.000   1.0 |
 |  0.50  0.75  0.07  2  4  1  0.000  0.000  1.000  1.000  0.000  0.000   1.0 |
 |  0.50  0.75  0.07  2  5  1  0.000  0.000  1.000  1.000  0.000  0.000   1.0 |
 |  0.50  0.75  0.07  2  5  1  0.000  0.000  1.000  1.000  0.000  0.000   1.0 |
 |  0.25  0.75  0.07  2  1  1  0.000  0.000  1.000  1.000  0.000  0.000   1.0 |
 |  0.25  0.75  0.07  2  1  1  0.000  0.000  1.000  1.000  0.000  0.000   1.0 |
 |  0.25  0.75  0.07  2  2  1  0.000  0.000  1.000  1.000  0.000  0.000   1.0 |
 |  0.25  0.75  0.07  2  2  1  0.000  0.000  1.000  1.000  0.000  0.000   1.0 |
 |  0.25  0.75  0.07  2  3  1  0.000  0.000  1.000  1.000  0.000  0.000   1.0 |
 |  0.25  0.75  0.07  2  3  1  0.000  0.000  1.000  1.000  0.000  0.000   1.0 |
 |  0.25  0.75  0.07  2  4  1  0.000  0.000  1.000  1.000  0.000  0.000   1.0 |
 |  0.25  0.75  0.07  2  4  1  0.000  0.000  1.000  1.000  0.000  0.000   1.0 |
 |  0.25  0.75  0.07  2  5  1  0.000  0.000  1.000  1.000  0.000  0.000   1.0 |
 |  0.25  0.75  0.07  2  5  1  0.000  0.000  1.000  1.000  0.000  0.000   1.0 |
 |  0.00  0.75  0.07  2  1  1  0.000  0.000  1.000  1.000  0.000  0.000   1.0 |
 |  0.00  0.75  0.07  2  1  1  0.000  0.000  1.000  1.000  0.000  0.000   1.0 |
 |  0.00  0.75  0.07  2  2  1  0.000  0.000  1.000  1.000  0.000  0.000   1.0 |
 |  0.00  0.75  0.07  2  2  1  0.000  0.000  1.000  1.000  0.000  0.000   1.0 |
 |  0.00  0.75  0.07  2  3  1  0.000  0.000  1.000  1.000  0.000  0.000   1.0 |
 |  0.00  0.75  0.07  2  3  1  0.000  0.000  1.000  1.000  0.000  0.000   1.0 |
 |  0.00  0.75  0.07  2  4  1  0.000  0.000  1.000  1.000  0.000  0.000   1.0 |
 |  0.00  0.75  0.07  2  4  1  0.000  0.000  1.000  1.000  0.000  0.000   1.0 |
 |  0.00  0.75  0.07  2  5  1  0.000  0.000  1.000  1.000  0.000  0.000   1.0 |
 |  0.00  0.75  0.07  2  5  1  0.000  0.000  1.000  1.000  0.000  0.000   1.0 |
 |  0.50  0.25  0.07  2  1  1  0.000  0.000  1.000  1.000  0.000  0.000   1.0 |
 |  0.50  0.25  0.07  2  1  1  0.000  0.000  1.000  1.000  0.000  0.000   1.0 |
 |  0.50  0.25  0.07  2  2  1  0.000  0.000  1.000  1.000  0.000  0.000   1.0 |
 |  0.50  0.25  0.07  2  2  1  0.000  0.000  1.000  1.000  0.000  0.000   1.0 |
 |  0.50  0.25  0.07  2  3  1  0.000  0.000  1.000  1.000  0.000  0.000   1.0 |
 |  0.50  0.25  0.07  2  3  1  0.000  0.000  1.000  1.000  0.000  0.000   1.0 |
 |  0.50  0.25  0.07  2  4  1  0.000  0.000  1.000  1.000  0.000  0.000   1.0 |
 |  0.50  0.25  0.07  2  4  1  0.000  0.000  1.000  1.000  0.000  0.000   1.0 |
 |  0.50  0.25  0.07  2  5  1  0.000  0.000  1.000  1.000  0.000  0.000   1.0 |
 |  0.50  0.25  0.07  2  5  1  0.000  0.000  1.000  1.000  0.000  0.000   1.0 |
 |  0.50  0.50  0.07  2  1  1  0.000  0.000  1.000  1.000  0.000  0.000   1.0 |
 |  0.50  0.50  0.07  2  1  1  0.000  0.000  1.000  1.000  0.000  0.000   1.0 |
 |  0.50  0.50  0.07  2  2  1  0.000  0.000  1.000  1.000  0.000  0.000   1.0 |
 |  0.50  0.50  0.07  2  2  1  0.000  0.000  1.000  1.000  0.000  0.000   1.0 |
 |  0.50  0.50  0.07  2  3  1  0.000  0.000  1.000  1.000  0.000  0.000   1.0 |
 |  0.50  0.50  0.07  2  3  1  0.000  0.000  1.000  1.000  0.000  0.000   1.0 |
 |  0.50  0.50  0.07  2  4  1  0.000  0.000  1.000  1.000  0.000  0.000   1.0 |
 |  0.50  0.50  0.07  2  4  1  0.000  0.000  1.000  1.000  0.000  0.000   1.0 |
 |  0.50  0.50  0.07  2  5  1  0.000  0.000  1.000  1.000  0.000  0.000   1.0 |
 |  0.50  0.50  0.07  2  5  1  0.000  0.000  1.000  1.000  0.000  0.000   1.0 |
 |  0.25  0.50  0.07  2  1  1  0.000  0.000  1.000  1.000  0.000  0.000   1.0 |
 |  0.25  0.50  0.07  2  1  1  0.000  0.000  1.000  1.000  0.000  0.000   1.0 |
 |  0.25  0.50  0.07  2  2  1  0.000  0.000  1.000  1.000  0.000  0.000   1.0 |
 |  0.25  0.50  0.07  2  2  1  0.000  0.000  1.000  1.000  0.000  0.000   1.0 |
 |  0.25  0.50  0.07  2  3  1  0.000  0.000  1.000  1.000  0.000  0.000   1.0 |
 |  0.25  0.50  0.07  2  3  1  0.000  0.000  1.000  1.000  0.000  0.000   1.0 |
 |  0.25  0.50  0.07  2  4  1  0.000  0.000  1.000  1.000  0.000  0.000   1.0 |
 |  0.25  0.50  0.07  2  4  1  0.000  0.000  1.000  1.000  0.000  0.000   1.0 |
 |  0.25  0.50  0.07  2  5  1  0.000  0.000  1.000  1.000  0.000  0.000   1.0 |
 |  0.25  0.50  0.07  2  5  1  0.000  0.000  1.000  1.000  0.000  0.000   1.0 |
 |  0.25  0.25  0.07  2  1  1  0.000  0.000  1.000  1.000  0.000  0.000   1.0 |
 |  0.25  0.25  0.07  2  1  1  0.000  0.000  1.000  1.000  0.000  0.000   1.0 |
 |  0.25  0.25  0.07  2  2  1  0.000  0.000  1.000  1.000  0.000  0.000   1.0 |
 |  0.25  0.25  0.07  2  2  1  0.000  0.000  1.000  1.000  0.000  0.000   1.0 |
 |  0.25  0.25  0.07  2  3  1  0.000  0.000  1.000  1.000  0.000  0.000   1.0 |
 |  0.25  0.25  0.07  2  3  1  0.000  0.000  1.000  1.000  0.000  0.000   1.0 |
 |  0.25  0.25  0.07  2  4  1  0.000  0.000  1.000  1.000  0.000  0.000   1.0 |
 |  0.25  0.25  0.07  2  4  1  0.000  0.000  1.000  1.000  0.000  0.000   1.0 |
 |  0.25  0.25  0.07  2  5  1  0.000  0.000  1.000  1.000  0.000  0.000   1.0 |
 |  0.25  0.25  0.07  2  5  1  0.000  0.000  1.000  1.000  0.000  0.000   1.0 |
 |  0.00  0.25  0.07  2  1  1  0.000  0.000  1.000  1.000  0.000  0.000   1.0 |
 |  0.00  0.25  0.07  2  1  1  0.000  0.000  1.000  1.000  0.000  0.000   1.0 |
 |  0.00  0.25  0.07  2  2  1  0.000  0.000  1.000  1.000  0.000  0.000   1.0 |
 |  0.00  0.25  0.07  2  2  1  0.000  0.000  1.000  1.000  0.000  0.000   1.0 |
 |  0.00  0.25  0.07  2  3  1  0.000  0.000  1.000  1.000  0.000  0.000   1.0 |
 |  0.00  0.25  0.07  2  3  1  0.000  0.000  1.000  1.000  0.000  0.000   1.0 |
 |  0.00  0.25  0.07  2  4  1  0.000  0.000  1.000  1.000  0.000  0.000   1.0 |
 |  0.00  0.25  0.07  2  4  1  0.000  0.000  1.000  1.000  0.000  0.000   1.0 |
 |  0.00  0.25  0.07  2  5  1  0.000  0.000  1.000  1.000  0.000  0.000   1.0 |
 |  0.00  0.25  0.07  2  5  1  0.000  0.000  1.000  1.000  0.000  0.000   1.0 |
 |  0.00  0.50  0.07  2  1  1  0.000  0.000  1.000  1.000  0.000  0.000   1.0 |
 |  0.00  0.50  0.07  2  1  1  0.000  0.000  1.000  1.000  0.000  0.000   1.0 |
 |  0.00  0.50  0.07  2  2  1  0.000  0.000  1.000  1.000  0.000  0.000   1.0 |
 |  0.00  0.50  0.07  2  2  1  0.000  0.000  1.000  1.000  0.000  0.000   1.0 |
 |  0.00  0.50  0.07  2  3  1  0.000  0.000  1.000  1.000  0.000  0.000   1.0 |
 |  0.00  0.50  0.07  2  3  1  0.000  0.000  1.000  1.000  0.000  0.000   1.0 |
 |  0.00  0.50  0.07  2  4  1  0.000  0.000  1.000  1.000  0.000  0.000   1.0 |
 |  0.00  0.50  0.07  2  4  1  0.000  0.000  1.000  1.000  0.000  0.000   1.0 |
 |  0.00  0.50  0.07  2  5  1  0.000  0.000  1.000  1.000  0.000  0.000   1.0 |
 |  0.00  0.50  0.07  2  5  1  0.000  0.000  1.000  1.000  0.000  0.000   1.0 |
 |  0.17  0.08  0.00  1  1  1  0.000  0.000  1.000  1.000  0.000  0.000   1.0 |
 |  0.17  0.08  0.00  1  1  1  0.000  0.000  1.000  1.000  0.000  0.000   1.0 |
 |  0.17  0.08  0.00  1  2  1  0.000  0.000  1.000  1.000  0.000  0.000   1.0 |
 |  0.17  0.08  0.00  1  2  1  0.000  0.000  1.000  1.000  0.000  0.000   1.0 |
 |  0.17  0.08  0.00  1  3  1  0.000  0.000  1.000  1.000  0.000  0.000   1.0 |
 |  0.17  0.08  0.00  1  3  1  0.000  0.000  1.000  1.000  0.000  0.000   1.0 |
 |  0.17  0.08  0.14  1  1  1  0.000  0.000  1.000  1.000  0.000  0.000   1.0 |
 |  0.17  0.08  0.14  1  1  1  0.000  0.000  1.000  1.000  0.000  0.000   1.0 |
 |  0.17  0.08  0.14  1  2  1  0.000  0.000  1.000  1.000  0.000  0.000   1.0 |
 |  0.17  0.08  0.14  1  2  1  0.000  0.000  1.000  1.000  0.000  0.000   1.0 |
 |  0.17  0.08  0.14  1  3  1  0.000  0.000  1.000  1.000  0.000  0.000   1.0 |
 |  0.17  0.08  0.14  1  3  1  0.000  0.000  1.000  1.000  0.000  0.000   1.0 |
 |  0.42  0.08  0.00  1  1  1  0.000  0.000  1.000  1.000  0.000  0.000   1.0 |
 |  0.42  0.08  0.00  1  1  1  0.000  0.000  1.000  1.000  0.000  0.000   1.0 |
 |  0.42  0.08  0.00  1  2  1  0.000  0.000  1.000  1.000  0.000  0.000   1.0 |
 |  0.42  0.08  0.00  1  2  1  0.000  0.000  1.000  1.000  0.000  0.000   1.0 |
 |  0.42  0.08  0.00  1  3  1  0.000  0.000  1.000  1.000  0.000  0.000   1.0 |
 |  0.42  0.08  0.00  1  3  1  0.000  0.000  1.000  1.000  0.000  0.000   1.0 |
 |  0.42  0.08  0.14  1  1  1  0.000  0.000  1.000  1.000  0.000  0.000   1.0 |
 |  0.42  0.08  0.14  1  1  1  0.000  0.000  1.000  1.000  0.000  0.000   1.0 |
 |  0.42  0.08  0.14  1  2  1  0.000  0.000  1.000  1.000  0.000  0.000   1.0 |
 |  0.42  0.08  0.14  1  2  1  0.000  0.000  1.000  1.000  0.000  0.000   1.0 |
 |  0.42  0.08  0.14  1  3  1  0.000  0.000  1.000  1.000  0.000  0.000   1.0 |
 |  0.42  0.08  0.14  1  3  1  0.000  0.000  1.000  1.000  0.000  0.000   1.0 |
 |  0.67  0.08  0.00  1  1  1  0.000  0.000  1.000  1.000  0.000  0.000   1.0 |
 |  0.67  0.08  0.00  1  1  1  0.000  0.000  1.000  1.000  0.000  0.000   1.0 |
 |  0.67  0.08  0.00  1  2  1  0.000  0.000  1.000  1.000  0.000  0.000   1.0 |
 |  0.67  0.08  0.00  1  2  1  0.000  0.000  1.000  1.000  0.000  0.000   1.0 |
 |  0.67  0.08  0.00  1  3  1  0.000  0.000  1.000  1.000  0.000  0.000   1.0 |
 |  0.67  0.08  0.00  1  3  1  0.000  0.000  1.000  1.000  0.000  0.000   1.0 |
 |  0.67  0.08  0.14  1  1  1  0.000  0.000  1.000  1.000  0.000  0.000   1.0 |
 |  0.67  0.08  0.14  1  1  1  0.000  0.000  1.000  1.000  0.000  0.000   1.0 |
 |  0.67  0.08  0.14  1  2  1  0.000  0.000  1.000  1.000  0.000  0.000   1.0 |
 |  0.67  0.08  0.14  1  2  1  0.000  0.000  1.000  1.000  0.000  0.000   1.0 |
 |  0.67  0.08  0.14  1  3  1  0.000  0.000  1.000  1.000  0.000  0.000   1.0 |
 |  0.67  0.08  0.14  1  3  1  0.000  0.000  1.000  1.000  0.000  0.000   1.0 |
 |  0.92  0.08  0.00  1  1  1  0.000  0.000  1.000  1.000  0.000  0.000   1.0 |
 |  0.92  0.08  0.00  1  1  1  0.000  0.000  1.000  1.000  0.000  0.000   1.0 |
 |  0.92  0.08  0.00  1  2  1  0.000  0.000  1.000  1.000  0.000  0.000   1.0 |
 |  0.92  0.08  0.00  1  2  1  0.000  0.000  1.000  1.000  0.000  0.000   1.0 |
 |  0.92  0.08  0.00  1  3  1  0.000  0.000  1.000  1.000  0.000  0.000   1.0 |
 |  0.92  0.08  0.00  1  3  1  0.000  0.000  1.000  1.000  0.000  0.000   1.0 |
 |  0.92  0.08  0.14  1  1  1  0.000  0.000  1.000  1.000  0.000  0.000   1.0 |
 |  0.92  0.08  0.14  1  1  1  0.000  0.000  1.000  1.000  0.000  0.000   1.0 |
 |  0.92  0.08  0.14  1  2  1  0.000  0.000  1.000  1.000  0.000  0.000   1.0 |
 |  0.92  0.08  0.14  1  2  1  0.000  0.000  1.000  1.000  0.000  0.000   1.0 |
 |  0.92  0.08  0.14  1  3  1  0.000  0.000  1.000  1.000  0.000  0.000   1.0 |
 |  0.92  0.08  0.14  1  3  1  0.000  0.000  1.000  1.000  0.000  0.000   1.0 |
 |  0.92  0.33  0.00  1  1  1  0.000  0.000  1.000  1.000  0.000  0.000   1.0 |
 |  0.92  0.33  0.00  1  1  1  0.000  0.000  1.000  1.000  0.000  0.000   1.0 |
 |  0.92  0.33  0.00  1  2  1  0.000  0.000  1.000  1.000  0.000  0.000   1.0 |
 |  0.92  0.33  0.00  1  2  1  0.000  0.000  1.000  1.000  0.000  0.000   1.0 |
 |  0.92  0.33  0.00  1  3  1  0.000  0.000  1.000  1.000  0.000  0.000   1.0 |
 |  0.92  0.33  0.00  1  3  1  0.000  0.000  1.000  1.000  0.000  0.000   1.0 |
 |  0.92  0.33  0.14  1  1  1  0.000  0.000  1.000  1.000  0.000  0.000   1.0 |
 |  0.92  0.33  0.14  1  1  1  0.000  0.000  1.000  1.000  0.000  0.000   1.0 |
 |  0.92  0.33  0.14  1  2  1  0.000  0.000  1.000  1.000  0.000  0.000   1.0 |
 |  0.92  0.33  0.14  1  2  1  0.000  0.000  1.000  1.000  0.000  0.000   1.0 |
 |  0.92  0.33  0.14  1  3  1  0.000  0.000  1.000  1.000  0.000  0.000   1.0 |
 |  0.92  0.33  0.14  1  3  1  0.000  0.000  1.000  1.000  0.000  0.000   1.0 |
 |  0.92  0.58  0.00  1  1  1  0.000  0.000  1.000  1.000  0.000  0.000   1.0 |
 |  0.92  0.58  0.00  1  1  1  0.000  0.000  1.000  1.000  0.000  0.000   1.0 |
 |  0.92  0.58  0.00  1  2  1  0.000  0.000  1.000  1.000  0.000  0.000   1.0 |
 |  0.92  0.58  0.00  1  2  1  0.000  0.000  1.000  1.000  0.000  0.000   1.0 |
 |  0.92  0.58  0.00  1  3  1  0.000  0.000  1.000  1.000  0.000  0.000   1.0 |
 |  0.92  0.58  0.00  1  3  1  0.000  0.000  1.000  1.000  0.000  0.000   1.0 |
 |  0.92  0.58  0.14  1  1  1  0.000  0.000  1.000  1.000  0.000  0.000   1.0 |
 |  0.92  0.58  0.14  1  1  1  0.000  0.000  1.000  1.000  0.000  0.000   1.0 |
 |  0.92  0.58  0.14  1  2  1  0.000  0.000  1.000  1.000  0.000  0.000   1.0 |
 |  0.92  0.58  0.14  1  2  1  0.000  0.000  1.000  1.000  0.000  0.000   1.0 |
 |  0.92  0.58  0.14  1  3  1  0.000  0.000  1.000  1.000  0.000  0.000   1.0 |
 |  0.92  0.58  0.14  1  3  1  0.000  0.000  1.000  1.000  0.000  0.000   1.0 |
 |  0.92  0.83  0.00  1  1  1  0.000  0.000  1.000  1.000  0.000  0.000   1.0 |
 |  0.92  0.83  0.00  1  1  1  0.000  0.000  1.000  1.000  0.000  0.000   1.0 |
 |  0.92  0.83  0.00  1  2  1  0.000  0.000  1.000  1.000  0.000  0.000   1.0 |
 |  0.92  0.83  0.00  1  2  1  0.000  0.000  1.000  1.000  0.000  0.000   1.0 |
 |  0.92  0.83  0.00  1  3  1  0.000  0.000  1.000  1.000  0.000  0.000   1.0 |
 |  0.92  0.83  0.00  1  3  1  0.000  0.000  1.000  1.000  0.000  0.000   1.0 |
 |  0.92  0.83  0.14  1  1  1  0.000  0.000  1.000  1.000  0.000  0.000   1.0 |
 |  0.92  0.83  0.14  1  1  1  0.000  0.000  1.000  1.000  0.000  0.000   1.0 |
 |  0.92  0.83  0.14  1  2  1  0.000  0.000  1.000  1.000  0.000  0.000   1.0 |
 |  0.92  0.83  0.14  1  2  1  0.000  0.000  1.000  1.000  0.000  0.000   1.0 |
 |  0.92  0.83  0.14  1  3  1  0.000  0.000  1.000  1.000  0.000  0.000   1.0 |
 |  0.92  0.83  0.14  1  3  1  0.000  0.000  1.000  1.000  0.000  0.000   1.0 |
 |  0.67  0.83  0.00  1  1  1  0.000  0.000  1.000  1.000  0.000  0.000   1.0 |
 |  0.67  0.83  0.00  1  1  1  0.000  0.000  1.000  1.000  0.000  0.000   1.0 |
 |  0.67  0.83  0.00  1  2  1  0.000  0.000  1.000  1.000  0.000  0.000   1.0 |
 |  0.67  0.83  0.00  1  2  1  0.000  0.000  1.000  1.000  0.000  0.000   1.0 |
 |  0.67  0.83  0.00  1  3  1  0.000  0.000  1.000  1.000  0.000  0.000   1.0 |
 |  0.67  0.83  0.00  1  3  1  0.000  0.000  1.000  1.000  0.000  0.000   1.0 |
 |  0.67  0.83  0.14  1  1  1  0.000  0.000  1.000  1.000  0.000  0.000   1.0 |
 |  0.67  0.83  0.14  1  1  1  0.000  0.000  1.000  1.000  0.000  0.000   1.0 |
 |  0.67  0.83  0.14  1  2  1  0.000  0.000  1.000  1.000  0.000  0.000   1.0 |
 |  0.67  0.83  0.14  1  2  1  0.000  0.000  1.000  1.000  0.000  0.000   1.0 |
 |  0.67  0.83  0.14  1  3  1  0.000  0.000  1.000  1.000  0.000  0.000   1.0 |
 |  0.67  0.83  0.14  1  3  1  0.000  0.000  1.000  1.000  0.000  0.000   1.0 |
 |  0.42  0.83  0.00  1  1  1  0.000  0.000  1.000  1.000  0.000  0.000   1.0 |
 |  0.42  0.83  0.00  1  1  1  0.000  0.000  1.000  1.000  0.000  0.000   1.0 |
 |  0.42  0.83  0.00  1  2  1  0.000  0.000  1.000  1.000  0.000  0.000   1.0 |
 |  0.42  0.83  0.00  1  2  1  0.000  0.000  1.000  1.000  0.000  0.000   1.0 |
 |  0.42  0.83  0.00  1  3  1  0.000  0.000  1.000  1.000  0.000  0.000   1.0 |
 |  0.42  0.83  0.00  1  3  1  0.000  0.000  1.000  1.000  0.000  0.000   1.0 |
 |  0.42  0.83  0.14  1  1  1  0.000  0.000  1.000  1.000  0.000  0.000   1.0 |
 |  0.42  0.83  0.14  1  1  1  0.000  0.000  1.000  1.000  0.000  0.000   1.0 |
 |  0.42  0.83  0.14  1  2  1  0.000  0.000  1.000  1.000  0.000  0.000   1.0 |
 |  0.42  0.83  0.14  1  2  1  0.000  0.000  1.000  1.000  0.000  0.000   1.0 |
 |  0.42  0.83  0.14  1  3  1  0.000  0.000  1.000  1.000  0.000  0.000   1.0 |
 |  0.42  0.83  0.14  1  3  1  0.000  0.000  1.000  1.000  0.000  0.000   1.0 |
 |  0.17  0.83  0.00  1  1  1  0.000  0.000  1.000  1.000  0.000  0.000   1.0 |
 |  0.17  0.83  0.00  1  1  1  0.000  0.000  1.000  1.000  0.000  0.000   1.0 |
 |  0.17  0.83  0.00  1  2  1  0.000  0.000  1.000  1.000  0.000  0.000   1.0 |
 |  0.17  0.83  0.00  1  2  1  0.000  0.000  1.000  1.000  0.000  0.000   1.0 |
 |  0.17  0.83  0.00  1  3  1  0.000  0.000  1.000  1.000  0.000  0.000   1.0 |
 |  0.17  0.83  0.00  1  3  1  0.000  0.000  1.000  1.000  0.000  0.000   1.0 |
 |  0.17  0.83  0.14  1  1  1  0.000  0.000  1.000  1.000  0.000  0.000   1.0 |
 |  0.17  0.83  0.14  1  1  1  0.000  0.000  1.000  1.000  0.000  0.000   1.0 |
 |  0.17  0.83  0.14  1  2  1  0.000  0.000  1.000  1.000  0.000  0.000   1.0 |
 |  0.17  0.83  0.14  1  2  1  0.000  0.000  1.000  1.000  0.000  0.000   1.0 |
 |  0.17  0.83  0.14  1  3  1  0.000  0.000  1.000  1.000  0.000  0.000   1.0 |
 |  0.17  0.83  0.14  1  3  1  0.000  0.000  1.000  1.000  0.000  0.000   1.0 |
 |  0.67  0.33  0.00  1  1  1  0.000  0.000  1.000  1.000  0.000  0.000   1.0 |
 |  0.67  0.33  0.00  1  1  1  0.000  0.000  1.000  1.000  0.000  0.000   1.0 |
 |  0.67  0.33  0.00  1  2  1  0.000  0.000  1.000  1.000  0.000  0.000   1.0 |
 |  0.67  0.33  0.00  1  2  1  0.000  0.000  1.000  1.000  0.000  0.000   1.0 |
 |  0.67  0.33  0.00  1  3  1  0.000  0.000  1.000  1.000  0.000  0.000   1.0 |
 |  0.67  0.33  0.00  1  3  1  0.000  0.000  1.000  1.000  0.000  0.000   1.0 |
 |  0.67  0.33  0.14  1  1  1  0.000  0.000  1.000  1.000  0.000  0.000   1.0 |
 |  0.67  0.33  0.14  1  1  1  0.000  0.000  1.000  1.000  0.000  0.000   1.0 |
 |  0.67  0.33  0.14  1  2  1  0.000  0.000  1.000  1.000  0.000  0.000   1.0 |
 |  0.67  0.33  0.14  1  2  1  0.000  0.000  1.000  1.000  0.000  0.000   1.0 |
 |  0.67  0.33  0.14  1  3  1  0.000  0.000  1.000  1.000  0.000  0.000   1.0 |
 |  0.67  0.33  0.14  1  3  1  0.000  0.000  1.000  1.000  0.000  0.000   1.0 |
 |  0.67  0.58  0.00  1  1  1  0.000  0.000  1.000  1.000  0.000  0.000   1.0 |
 |  0.67  0.58  0.00  1  1  1  0.000  0.000  1.000  1.000  0.000  0.000   1.0 |
 |  0.67  0.58  0.00  1  2  1  0.000  0.000  1.000  1.000  0.000  0.000   1.0 |
 |  0.67  0.58  0.00  1  2  1  0.000  0.000  1.000  1.000  0.000  0.000   1.0 |
 |  0.67  0.58  0.00  1  3  1  0.000  0.000  1.000  1.000  0.000  0.000   1.0 |
 |  0.67  0.58  0.00  1  3  1  0.000  0.000  1.000  1.000  0.000  0.000   1.0 |
 |  0.67  0.58  0.14  1  1  1  0.000  0.000  1.000  1.000  0.000  0.000   1.0 |
 |  0.67  0.58  0.14  1  1  1  0.000  0.000  1.000  1.000  0.000  0.000   1.0 |
 |  0.67  0.58  0.14  1  2  1  0.000  0.000  1.000  1.000  0.000  0.000   1.0 |
 |  0.67  0.58  0.14  1  2  1  0.000  0.000  1.000  1.000  0.000  0.000   1.0 |
 |  0.67  0.58  0.14  1  3  1  0.000  0.000  1.000  1.000  0.000  0.000   1.0 |
 |  0.67  0.58  0.14  1  3  1  0.000  0.000  1.000  1.000  0.000  0.000   1.0 |
 |  0.42  0.58  0.00  1  1  1  0.000  0.000  1.000  1.000  0.000  0.000   1.0 |
 |  0.42  0.58  0.00  1  1  1  0.000  0.000  1.000  1.000  0.000  0.000   1.0 |
 |  0.42  0.58  0.00  1  2  1  0.000  0.000  1.000  1.000  0.000  0.000   1.0 |
 |  0.42  0.58  0.00  1  2  1  0.000  0.000  1.000  1.000  0.000  0.000   1.0 |
 |  0.42  0.58  0.00  1  3  1  0.000  0.000  1.000  1.000  0.000  0.000   1.0 |
 |  0.42  0.58  0.00  1  3  1  0.000  0.000  1.000  1.000  0.000  0.000   1.0 |
 |  0.42  0.58  0.14  1  1  1  0.000  0.000  1.000  1.000  0.000  0.000   1.0 |
 |  0.42  0.58  0.14  1  1  1  0.000  0.000  1.000  1.000  0.000  0.000   1.0 |
 |  0.42  0.58  0.14  1  2  1  0.000  0.000  1.000  1.000  0.000  0.000   1.0 |
 |  0.42  0.58  0.14  1  2  1  0.000  0.000  1.000  1.000  0.000  0.000   1.0 |
 |  0.42  0.58  0.14  1  3  1  0.000  0.000  1.000  1.000  0.000  0.000   1.0 |
 |  0.42  0.58  0.14  1  3  1  0.000  0.000  1.000  1.000  0.000  0.000   1.0 |
 |  0.42  0.33  0.00  1  1  1  0.000  0.000  1.000  1.000  0.000  0.000   1.0 |
 |  0.42  0.33  0.00  1  1  1  0.000  0.000  1.000  1.000  0.000  0.000   1.0 |
 |  0.42  0.33  0.00  1  2  1  0.000  0.000  1.000  1.000  0.000  0.000   1.0 |
 |  0.42  0.33  0.00  1  2  1  0.000  0.000  1.000  1.000  0.000  0.000   1.0 |
 |  0.42  0.33  0.00  1  3  1  0.000  0.000  1.000  1.000  0.000  0.000   1.0 |
 |  0.42  0.33  0.00  1  3  1  0.000  0.000  1.000  1.000  0.000  0.000   1.0 |
 |  0.42  0.33  0.14  1  1  1  0.000  0.000  1.000  1.000  0.000  0.000   1.0 |
 |  0.42  0.33  0.14  1  1  1  0.000  0.000  1.000  1.000  0.000  0.000   1.0 |
 |  0.42  0.33  0.14  1  2  1  0.000  0.000  1.000  1.000  0.000  0.000   1.0 |
 |  0.42  0.33  0.14  1  2  1  0.000  0.000  1.000  1.000  0.000  0.000   1.0 |
 |  0.42  0.33  0.14  1  3  1  0.000  0.000  1.000  1.000  0.000  0.000   1.0 |
 |  0.42  0.33  0.14  1  3  1  0.000  0.000  1.000  1.000  0.000  0.000   1.0 |
 |  0.17  0.33  0.00  1  1  1  0.000  0.000  1.000  1.000  0.000  0.000   1.0 |
 |  0.17  0.33  0.00  1  1  1  0.000  0.000  1.000  1.000  0.000  0.000   1.0 |
 |  0.17  0.33  0.00  1  2  1  0.000  0.000  1.000  1.000  0.000  0.000   1.0 |
 |  0.17  0.33  0.00  1  2  1  0.000  0.000  1.000  1.000  0.000  0.000   1.0 |
 |  0.17  0.33  0.00  1  3  1  0.000  0.000  1.000  1.000  0.000  0.000   1.0 |
 |  0.17  0.33  0.00  1  3  1  0.000  0.000  1.000  1.000  0.000  0.000   1.0 |
 |  0.17  0.33  0.14  1  1  1  0.000  0.000  1.000  1.000  0.000  0.000   1.0 |
 |  0.17  0.33  0.14  1  1  1  0.000  0.000  1.000  1.000  0.000  0.000   1.0 |
 |  0.17  0.33  0.14  1  2  1  0.000  0.000  1.000  1.000  0.000  0.000   1.0 |
 |  0.17  0.33  0.14  1  2  1  0.000  0.000  1.000  1.000  0.000  0.000   1.0 |
 |  0.17  0.33  0.14  1  3  1  0.000  0.000  1.000  1.000  0.000  0.000   1.0 |
 |  0.17  0.33  0.14  1  3  1  0.000  0.000  1.000  1.000  0.000  0.000   1.0 |
 |  0.17  0.58  0.00  1  1  1  0.000  0.000  1.000  1.000  0.000  0.000   1.0 |
 |  0.17  0.58  0.00  1  1  1  0.000  0.000  1.000  1.000  0.000  0.000   1.0 |
 |  0.17  0.58  0.00  1  2  1  0.000  0.000  1.000  1.000  0.000  0.000   1.0 |
 |  0.17  0.58  0.00  1  2  1  0.000  0.000  1.000  1.000  0.000  0.000   1.0 |
 |  0.17  0.58  0.00  1  3  1  0.000  0.000  1.000  1.000  0.000  0.000   1.0 |
 |  0.17  0.58  0.00  1  3  1  0.000  0.000  1.000  1.000  0.000  0.000   1.0 |
 |  0.17  0.58  0.14  1  1  1  0.000  0.000  1.000  1.000  0.000  0.000   1.0 |
 |  0.17  0.58  0.14  1  1  1  0.000  0.000  1.000  1.000  0.000  0.000   1.0 |
 |  0.17  0.58  0.14  1  2  1  0.000  0.000  1.000  1.000  0.000  0.000   1.0 |
 |  0.17  0.58  0.14  1  2  1  0.000  0.000  1.000  1.000  0.000  0.000   1.0 |
 |  0.17  0.58  0.14  1  3  1  0.000  0.000  1.000  1.000  0.000  0.000   1.0 |
 |  0.17  0.58  0.14  1  3  1  0.000  0.000  1.000  1.000  0.000  0.000   1.0 |
 +----------------------------------------------------------------------------+
  
                                ------------
                                K-POINT GRID
                                ------------
  
             Grid size =  1 x  1 x  1      Total points =    1
  
 *----------------------------------------------------------------------------*
 | k-point      Fractional Coordinate        Cartesian Coordinate (Ang^-1)    |
 +----------------------------------------------------------------------------+
 |     1    0.00000   0.00000   0.00000   |    0.00000   0.00000   0.00000    |
 *----------------------------------------------------------------------------*
  
  
 *---------------------------------- MAIN ------------------------------------*
 |  Number of Wannier Functions               :               352             |
 |  Number of Objective Wannier Functions     :               352             |
 |  Number of input Bloch states              :               600             |
 |  Output verbosity (1=low, 5=high)          :                 3             |
 |  Timing Level (1=low, 5=high)              :                 1             |
 |  Optimisation (0=memory, 3=speed)          :                 3             |
 |  Length Unit                               :               Ang             |
 |  Post-processing setup (write *.nnkp)      :                 F             |
 |  Using Gamma-only branch of algorithms     :                 F             |
 |  CP code post-processing                   :                 F             |
 |  Wavefunction (UNK) file-type              :       unformatted             |
 |  Wavefunction spin channel                 :                up             |
 *----------------------------------------------------------------------------*
 *------------------------------- WANNIERISE ---------------------------------*
 |  Total number of iterations                :               500             |
 |  Number of CG steps before reset           :                 5             |
 |  Trial step length for line search         :             2.000             |
 |  Convergence tolerence                     :         0.100E-09             |
 |  Convergence window                        :                -1             |
 |  Iterations between writing output         :                50             |
 |  Iterations between backing up to disk     :               100             |
 |  Write r^2_nm to file                      :                 F             |
 |  Write xyz WF centres to file              :                 T             |
 |  Write on-site energies <0n|H|0n> to file  :                 F             |
 |  Use guiding centre to control phases      :                 T             |
 |  Use phases for initial projections        :                 F             |
 |  Iterations before starting guiding centres:                 0             |
 |  Iterations between using guiding centres  :                 1             |
 |  Perform selective localization            :                 F             |
 |  Use constrains in selective localization  :                 F             |
 |  Value of the Lagrange multiplier          :         0.100E+01             |
 *----------------------------------------------------------------------------*
 *------------------------------- DISENTANGLE --------------------------------*
 |  Using band disentanglement                :                 T             |
 |  Total number of iterations                :              4000             |
 |  Mixing ratio                              :             0.500             |
 |  Convergence tolerence                     :         1.000E-10             |
 |  Convergence window                        :                 3             |
 *----------------------------------------------------------------------------*
 *-------------------------------- PLOTTING ----------------------------------*
 |  Plotting Wannier functions                :                 F             |
 |   Size of supercell for plotting           :     2x    2x    2             |
 |   Plotting mode (molecule or crystal)      :           crystal             |
 |   Plotting mode for spinor WFs             :             total             |
 |   Include phase for spinor WFs             :                 T             |
 |   Plotting format                          :          xcrysden             |
 |   Plot radius                              :             3.500             |
 |   Plot scale                               :             1.000             |
 *----------------------------------------------------------------------------*
 |  Plotting Fermi surface                    :                 F             |
 |   Number of plotting points (along b_1)    :                50             |
 |   Plotting format                          :          xcrysden             |
 *----------------------------------------------------------------------------*
 |  Plotting interpolated bandstructure       :                 T             |
 |   Number of K-path sections                :                 3             |
 |   Divisions along first K-path section     :               100             |
 |   Output format                            :           gnuplot             |
 |   Output mode                              :               s-k             |
 *----------------------------------------------------------------------------*
 |   K-space path sections:                                                   |
 |    From: Γ      0.000  0.000  0.000     To: K       0.333  0.333  0.000   |
 |    From: K       0.333  0.333  0.000     To: M       0.500  0.000  0.000   |
 |    From: M       0.500  0.000  0.000     To: Γ      0.000  0.000  0.000   |
 *----------------------------------------------------------------------------*
 |  Plotting Hamiltonian in WF basis          :                 T             |
 *----------------------------------------------------------------------------*
 |  Writing data for Van der Waals post-proc  :                 F             |
 *----------------------------------------------------------------------------*
 *------------------------------- TRANSPORT ----------------------------------*
 |  Transport mode                            :              bulk             |
 |   Hamiltonian from external files          :                 F             |
 |   System extended in                       :              none             |
 |   Centre of the unit cell to which WF are translated (fract. coords):      |
 |                                       0.000000,    0.000000,    0.000000   |
 |  Fermi energy (eV)                         :             0.000             |
 *----------------------------------------------------------------------------*
 Time to read parameters        0.021 (sec)

 *---------------------------------- K-MESH ----------------------------------*
 +----------------------------------------------------------------------------+
 |                    Distance to Nearest-Neighbour Shells                    |
 |                    ------------------------------------                    |
 |          Shell             Distance (Ang^-1)          Multiplicity         |
 |          -----             -----------------          ------------         |
 |             1                   0.265883                      2            |
 |             2                   0.526343                      6            |
 |             3                   0.531765                      2            |
 |             4                   0.589686                     12            |
 |             5                   0.748205                     12            |
 |             6                   0.797648                      2            |
 |             7                   0.911652                      6            |
 |             8                   0.949633                     12            |
 |             9                   0.955656                     12            |
 |            10                   1.052685                      6            |
 |            11                   1.055407                     12            |
 |            12                   1.063530                      2            |
 |            13                   1.085744                     12            |
 |            14                   1.179373                     12            |
 |            15                   1.186648                     12            |
 |            16                   1.211343                     12            |
 |            17                   1.320753                     12            |
 |            18                   1.329413                      2            |
 |            19                   1.392572                     12            |
 |            20                   1.400788                     12            |
 |            21                   1.417727                     24            |
 |            22                   1.429816                     12            |
 |            23                   1.490648                     24            |
 |            24                   1.496410                     12            |
 |            25                   1.579028                      6            |
 |            26                   1.601257                     12            |
 |            27                   1.604836                     24            |
 |            28                   1.611970                     12            |
 |            29                   1.666164                     12            |
 |            30                   1.695726                     12            |
 |            31                   1.752242                     24            |
 |            32                   1.769059                     12            |
 |            33                   1.823305                      6            |
 |            34                   1.842589                     12            |
 |            35                   1.897756                     12            |
 |            36                   1.899267                     12            |
 +----------------------------------------------------------------------------+
 | The b-vectors are chosen automatically                                     |
 | Shell:  1 Multiplicity:  2                                                 |
 | b-vector 1 :        0.000000    0.000000    0.265883      (Ang^-1)         |
 | b-vector 2 :        0.000000    0.000000   -0.265883      (Ang^-1)         |
 | Shell:  1 w_b    7.0727819      (Ang^2)                                    |
 | B1 condition is not satisfied: Adding another shell                        |
 | Shell:  2 Multiplicity:  6                                                 |
 | b-vector 1 :        0.455826    0.263171    0.000000      (Ang^-1)         |
 | b-vector 2 :        0.455826   -0.263171    0.000000      (Ang^-1)         |
 | b-vector 3 :        0.000000    0.526343    0.000000      (Ang^-1)         |
 | b-vector 4 :        0.000000   -0.526343    0.000000      (Ang^-1)         |
 | b-vector 5 :       -0.455826    0.263171    0.000000      (Ang^-1)         |
 | b-vector 6 :       -0.455826   -0.263171    0.000000      (Ang^-1)         |
 | Shell:  1 w_b    7.0727819      (Ang^2)                                    |
 | Shell:  2 w_b    1.2032104      (Ang^2)                                    |
 | The following shells are used:   1,  2                                     |
 +----------------------------------------------------------------------------+
 |                        Shell   # Nearest-Neighbours                        |
 |                        -----   --------------------                        |
 |                          1               2                                 |
 |                          2               6                                 |
 +----------------------------------------------------------------------------+
 | Completeness relation is fully satisfied [Eq. (B1), PRB 56, 12847 (1997)]  |
 +----------------------------------------------------------------------------+
 |                  b_k Vectors (Ang^-1) and Weights (Ang^2)                  |
 |                  ----------------------------------------                  |
 |            No.         b_k(x)      b_k(y)      b_k(z)        w_b           |
 |            ---        --------------------------------     --------        |
 |             1         0.000000    0.000000    0.265883     7.072782        |
 |             2         0.000000    0.000000   -0.265883     7.072782        |
 |             3         0.455826    0.263171    0.000000     1.203210        |
 |             4         0.455826   -0.263171    0.000000     1.203210        |
 |             5         0.000000    0.526343    0.000000     1.203210        |
 |             6         0.000000   -0.526343    0.000000     1.203210        |
 |             7        -0.455826    0.263171    0.000000     1.203210        |
 |             8        -0.455826   -0.263171    0.000000     1.203210        |
 +----------------------------------------------------------------------------+
 |                           b_k Directions (Ang^-1)                          |
 |                           -----------------------                          |
 |            No.           x           y           z                         |
 |            ---        --------------------------------                     |
 |             1         0.000000    0.000000    0.265883                     |
 |             2         0.455826    0.263171    0.000000                     |
 |             3         0.455826   -0.263171    0.000000                     |
 |             4         0.000000    0.526343    0.000000                     |
 +----------------------------------------------------------------------------+
  
 Time to get kmesh              0.015 (sec)
 *============================================================================*
 |                              MEMORY ESTIMATE                               |
 |         Maximum RAM allocated during each phase of the calculation         |
 *============================================================================*
 |                        Disentanglement           80.01 Mb                  |
 |                            Wannierise:           50.80 Mb                  |
 |                                                                            |
 |   N.B. by setting optimisation=0 memory usage will be reduced to:          |
 |                        Disentanglement           80.01 Mb                  |
 |                            Wannierise:           35.68 Mb                  |
 |   However, this will result in more i/o and slow down the calculation      |
 |                          plot_wannier:           50.80 Mb                  |
 *----------------------------------------------------------------------------*
  
 Starting a new Wannier90 calculation ...


 Reading overlaps from nbse2.noncolin.mmn    :  Created on  9Nov2023 at  9:45:11

 Reading projections from nbse2.noncolin.amn :  Created on  9Nov2023 at  9:40:41

 Time to read overlaps          7.082 (sec)

 *------------------------------- DISENTANGLE --------------------------------*
 +----------------------------------------------------------------------------+
 |                              Energy  Windows                               |
 |                              ---------------                               |
 |                   Outer:  -30.00000  to   30.00000  (eV)                   |
 |                   Inner:   -6.00000  to    2.50000  (eV)                   |
 +----------------------------------------------------------------------------+
 |                        K-points with Frozen States                         |
 |                        ---------------------------                         |
 |     1                                                                      |
 +----------------------------------------------------------------------------+
   Number of target bands to extract:  352
 +----------------------------------------------------------------------------+
 |                                  Windows                                   |
 |                                  -------                                   |
 |               K-point      Ndimwin     Ndimfroz    Nfirstwin               |
 |               ----------------------------------------------               |
 |                   1          472          326         129                  |
 +----------------------------------------------------------------------------+

                   Unitarised projection of Wannier functions                  
                   ------------------------------------------                  
   A_mn = <psi_m|g_n> --> S = A.A^+ --> U = S^-1/2.A
   In dis_project... done
   Using an inner window (linner = T)
   In dis_proj_froz...
 K-point   1 ndimwin: 472 we want the 26 leading eigenvector(s) of QPQ
  lambda(  1)= -0.000000000000
  lambda(  2)= -0.000000000000
  lambda(  3)= -0.000000000000
  lambda(  4)= -0.000000000000
  lambda(  5)= -0.000000000000
  lambda(  6)= -0.000000000000
  lambda(  7)= -0.000000000000
  lambda(  8)= -0.000000000000
  lambda(  9)= -0.000000000000
  lambda( 10)= -0.000000000000
  lambda( 11)= -0.000000000000
  lambda( 12)= -0.000000000000
  lambda( 13)= -0.000000000000
  lambda( 14)= -0.000000000000
  lambda( 15)= -0.000000000000
  lambda( 16)= -0.000000000000
  lambda( 17)= -0.000000000000
  lambda( 18)= -0.000000000000
  lambda( 19)= -0.000000000000
  lambda( 20)= -0.000000000000
  lambda( 21)= -0.000000000000
  lambda( 22)= -0.000000000000
  lambda( 23)= -0.000000000000
  lambda( 24)= -0.000000000000
  lambda( 25)= -0.000000000000
  lambda( 26)= -0.000000000000
  lambda( 27)= -0.000000000000
  lambda( 28)= -0.000000000000
  lambda( 29)= -0.000000000000
  lambda( 30)= -0.000000000000
  lambda( 31)= -0.000000000000
  lambda( 32)= -0.000000000000
  lambda( 33)= -0.000000000000
  lambda( 34)= -0.000000000000
  lambda( 35)= -0.000000000000
  lambda( 36)= -0.000000000000
  lambda( 37)= -0.000000000000
  lambda( 38)= -0.000000000000
  lambda( 39)= -0.000000000000
  lambda( 40)= -0.000000000000
  lambda( 41)= -0.000000000000
  lambda( 42)= -0.000000000000
  lambda( 43)= -0.000000000000
  lambda( 44)= -0.000000000000
  lambda( 45)= -0.000000000000
  lambda( 46)= -0.000000000000
  lambda( 47)= -0.000000000000
  lambda( 48)= -0.000000000000
  lambda( 49)= -0.000000000000
  lambda( 50)= -0.000000000000
  lambda( 51)= -0.000000000000
  lambda( 52)= -0.000000000000
  lambda( 53)= -0.000000000000
  lambda( 54)= -0.000000000000
  lambda( 55)= -0.000000000000
  lambda( 56)= -0.000000000000
  lambda( 57)= -0.000000000000
  lambda( 58)= -0.000000000000
  lambda( 59)= -0.000000000000
  lambda( 60)= -0.000000000000
  lambda( 61)= -0.000000000000
  lambda( 62)= -0.000000000000
  lambda( 63)= -0.000000000000
  lambda( 64)= -0.000000000000
  lambda( 65)= -0.000000000000
  lambda( 66)= -0.000000000000
  lambda( 67)= -0.000000000000
  lambda( 68)= -0.000000000000
  lambda( 69)= -0.000000000000
  lambda( 70)= -0.000000000000
  lambda( 71)= -0.000000000000
  lambda( 72)= -0.000000000000
  lambda( 73)= -0.000000000000
  lambda( 74)= -0.000000000000
  lambda( 75)= -0.000000000000
  lambda( 76)= -0.000000000000
  lambda( 77)= -0.000000000000
  lambda( 78)= -0.000000000000
  lambda( 79)= -0.000000000000
  lambda( 80)= -0.000000000000
  lambda( 81)= -0.000000000000
  lambda( 82)= -0.000000000000
  lambda( 83)= -0.000000000000
  lambda( 84)= -0.000000000000
  lambda( 85)= -0.000000000000
  lambda( 86)= -0.000000000000
  lambda( 87)= -0.000000000000
  lambda( 88)= -0.000000000000
  lambda( 89)= -0.000000000000
  lambda( 90)= -0.000000000000
  lambda( 91)= -0.000000000000
  lambda( 92)= -0.000000000000
  lambda( 93)= -0.000000000000
  lambda( 94)= -0.000000000000
  lambda( 95)= -0.000000000000
  lambda( 96)= -0.000000000000
  lambda( 97)= -0.000000000000
  lambda( 98)= -0.000000000000
  lambda( 99)= -0.000000000000
  lambda(100)= -0.000000000000
  lambda(101)= -0.000000000000
  lambda(102)= -0.000000000000
  lambda(103)= -0.000000000000
  lambda(104)= -0.000000000000
  lambda(105)= -0.000000000000
  lambda(106)= -0.000000000000
  lambda(107)= -0.000000000000
  lambda(108)= -0.000000000000
  lambda(109)= -0.000000000000
  lambda(110)= -0.000000000000
  lambda(111)= -0.000000000000
  lambda(112)= -0.000000000000
  lambda(113)= -0.000000000000
  lambda(114)= -0.000000000000
  lambda(115)= -0.000000000000
  lambda(116)= -0.000000000000
  lambda(117)= -0.000000000000
  lambda(118)= -0.000000000000
  lambda(119)= -0.000000000000
  lambda(120)= -0.000000000000
  lambda(121)= -0.000000000000
  lambda(122)= -0.000000000000
  lambda(123)= -0.000000000000
  lambda(124)= -0.000000000000
  lambda(125)= -0.000000000000
  lambda(126)= -0.000000000000
  lambda(127)= -0.000000000000
  lambda(128)= -0.000000000000
  lambda(129)= -0.000000000000
  lambda(130)= -0.000000000000
  lambda(131)= -0.000000000000
  lambda(132)= -0.000000000000
  lambda(133)= -0.000000000000
  lambda(134)= -0.000000000000
  lambda(135)= -0.000000000000
  lambda(136)= -0.000000000000
  lambda(137)= -0.000000000000
  lambda(138)= -0.000000000000
  lambda(139)= -0.000000000000
  lambda(140)= -0.000000000000
  lambda(141)= -0.000000000000
  lambda(142)= -0.000000000000
  lambda(143)= -0.000000000000
  lambda(144)= -0.000000000000
  lambda(145)= -0.000000000000
  lambda(146)= -0.000000000000
  lambda(147)= -0.000000000000
  lambda(148)= -0.000000000000
  lambda(149)= -0.000000000000
  lambda(150)= -0.000000000000
  lambda(151)= -0.000000000000
  lambda(152)= -0.000000000000
  lambda(153)= -0.000000000000
  lambda(154)= -0.000000000000
  lambda(155)= -0.000000000000
  lambda(156)= -0.000000000000
  lambda(157)= -0.000000000000
  lambda(158)= -0.000000000000
  lambda(159)= -0.000000000000
  lambda(160)= -0.000000000000
  lambda(161)= -0.000000000000
  lambda(162)= -0.000000000000
  lambda(163)= -0.000000000000
  lambda(164)=  0.000000000000
  lambda(165)=  0.000000000000
  lambda(166)=  0.000000000000
  lambda(167)=  0.000000000000
  lambda(168)=  0.000000000000
  lambda(169)=  0.000000000000
  lambda(170)=  0.000000000000
  lambda(171)=  0.000000000000
  lambda(172)=  0.000000000000
  lambda(173)=  0.000000000000
  lambda(174)=  0.000000000000
  lambda(175)=  0.000000000000
  lambda(176)=  0.000000000000
  lambda(177)=  0.000000000000
  lambda(178)=  0.000000000000
  lambda(179)=  0.000000000000
  lambda(180)=  0.000000000000
  lambda(181)=  0.000000000000
  lambda(182)=  0.000000000000
  lambda(183)=  0.000000000000
  lambda(184)=  0.000000000000
  lambda(185)=  0.000000000000
  lambda(186)=  0.000000000000
  lambda(187)=  0.000000000000
  lambda(188)=  0.000000000000
  lambda(189)=  0.000000000000
  lambda(190)=  0.000000000000
  lambda(191)=  0.000000000000
  lambda(192)=  0.000000000000
  lambda(193)=  0.000000000000
  lambda(194)=  0.000000000000
  lambda(195)=  0.000000000000
  lambda(196)=  0.000000000000
  lambda(197)=  0.000000000000
  lambda(198)=  0.000000000000
  lambda(199)=  0.000000000000
  lambda(200)=  0.000000000000
  lambda(201)=  0.000000000000
  lambda(202)=  0.000000000000
  lambda(203)=  0.000000000000
  lambda(204)=  0.000000000000
  lambda(205)=  0.000000000000
  lambda(206)=  0.000000000000
  lambda(207)=  0.000000000000
  lambda(208)=  0.000000000000
  lambda(209)=  0.000000000000
  lambda(210)=  0.000000000000
  lambda(211)=  0.000000000000
  lambda(212)=  0.000000000000
  lambda(213)=  0.000000000000
  lambda(214)=  0.000000000000
  lambda(215)=  0.000000000000
  lambda(216)=  0.000000000000
  lambda(217)=  0.000000000000
  lambda(218)=  0.000000000000
  lambda(219)=  0.000000000000
  lambda(220)=  0.000000000000
  lambda(221)=  0.000000000000
  lambda(222)=  0.000000000000
  lambda(223)=  0.000000000000
  lambda(224)=  0.000000000000
  lambda(225)=  0.000000000000
  lambda(226)=  0.000000000000
  lambda(227)=  0.000000000000
  lambda(228)=  0.000000000000
  lambda(229)=  0.000000000000
  lambda(230)=  0.000000000000
  lambda(231)=  0.000000000000
  lambda(232)=  0.000000000000
  lambda(233)=  0.000000000000
  lambda(234)=  0.000000000000
  lambda(235)=  0.000000000000
  lambda(236)=  0.000000000000
  lambda(237)=  0.000000000000
  lambda(238)=  0.000000000000
  lambda(239)=  0.000000000000
  lambda(240)=  0.000000000000
  lambda(241)=  0.000000000000
  lambda(242)=  0.000000000000
  lambda(243)=  0.000000000000
  lambda(244)=  0.000000000000
  lambda(245)=  0.000000000000
  lambda(246)=  0.000000000000
  lambda(247)=  0.000000000000
  lambda(248)=  0.000000000000
  lambda(249)=  0.000000000000
  lambda(250)=  0.000000000000
  lambda(251)=  0.000000000000
  lambda(252)=  0.000000000000
  lambda(253)=  0.000000000000
  lambda(254)=  0.000000000000
  lambda(255)=  0.000000000000
  lambda(256)=  0.000000000000
  lambda(257)=  0.000000000000
  lambda(258)=  0.000000000000
  lambda(259)=  0.000000000000
  lambda(260)=  0.000000000000
  lambda(261)=  0.000000000000
  lambda(262)=  0.000000000000
  lambda(263)=  0.000000000000
  lambda(264)=  0.000000000000
  lambda(265)=  0.000000000000
  lambda(266)=  0.000000000000
  lambda(267)=  0.000000000000
  lambda(268)=  0.000000000000
  lambda(269)=  0.000000000000
  lambda(270)=  0.000000000000
  lambda(271)=  0.000000000000
  lambda(272)=  0.000000000000
  lambda(273)=  0.000000000000
  lambda(274)=  0.000000000000
  lambda(275)=  0.000000000000
  lambda(276)=  0.000000000000
  lambda(277)=  0.000000000000
  lambda(278)=  0.000000000000
  lambda(279)=  0.000000000000
  lambda(280)=  0.000000000000
  lambda(281)=  0.000000000000
  lambda(282)=  0.000000000000
  lambda(283)=  0.000000000000
  lambda(284)=  0.000000000000
  lambda(285)=  0.000000000000
  lambda(286)=  0.000000000000
  lambda(287)=  0.000000000000
  lambda(288)=  0.000000000000
  lambda(289)=  0.000000000000
  lambda(290)=  0.000000000000
  lambda(291)=  0.000000000000
  lambda(292)=  0.000000000000
  lambda(293)=  0.000000000000
  lambda(294)=  0.000000000000
  lambda(295)=  0.000000000000
  lambda(296)=  0.000000000000
  lambda(297)=  0.000000000000
  lambda(298)=  0.000000000000
  lambda(299)=  0.000000000000
  lambda(300)=  0.000000000000
  lambda(301)=  0.000000000000
  lambda(302)=  0.000000000000
  lambda(303)=  0.000000000000
  lambda(304)=  0.000000000000
  lambda(305)=  0.000000000000
  lambda(306)=  0.000000000000
  lambda(307)=  0.000000000000
  lambda(308)=  0.000000000000
  lambda(309)=  0.000000000000
  lambda(310)=  0.000000000000
  lambda(311)=  0.000000000000
  lambda(312)=  0.000000000000
  lambda(313)=  0.000000000000
  lambda(314)=  0.000000000000
  lambda(315)=  0.000000000000
  lambda(316)=  0.000000000000
  lambda(317)=  0.000000000000
  lambda(318)=  0.000000000000
  lambda(319)=  0.000000000000
  lambda(320)=  0.000000000000
  lambda(321)=  0.000000000000
  lambda(322)=  0.000000000000
  lambda(323)=  0.000000000000
  lambda(324)=  0.000000000000
  lambda(325)=  0.000000000000
  lambda(326)=  0.000000000000
  lambda(327)=  0.000000000001
  lambda(328)=  0.000000000001
  lambda(329)=  0.000000003445
  lambda(330)=  0.000000003446
  lambda(331)=  0.000002080580
  lambda(332)=  0.000002080581
  lambda(333)=  0.000073204602
  lambda(334)=  0.000073204619
  lambda(335)=  0.000588485241
  lambda(336)=  0.000588485258
  lambda(337)=  0.000858703808
  lambda(338)=  0.000858707246
  lambda(339)=  0.000858766323
  lambda(340)=  0.000858771890
  lambda(341)=  0.000858795241
  lambda(342)=  0.000858806154
  lambda(343)=  0.000858976542
  lambda(344)=  0.000858992729
  lambda(345)=  0.000859020893
  lambda(346)=  0.000859033572
  lambda(347)=  0.000859096369
  lambda(348)=  0.000859109595
  lambda(349)=  0.016515307472
  lambda(350)=  0.016515309009
  lambda(351)=  0.016515493781
  lambda(352)=  0.016515497495
  lambda(353)=  0.016515713888
  lambda(354)=  0.016515717107
  lambda(355)=  0.016516002379
  lambda(356)=  0.016516003805
  lambda(357)=  0.016516076757
  lambda(358)=  0.016516079460
  lambda(359)=  0.016516278575
  lambda(360)=  0.016516280524
  lambda(361)=  0.020881715395
  lambda(362)=  0.020881715895
  lambda(363)=  0.031451610633
  lambda(364)=  0.031451618359
  lambda(365)=  0.031486862317
  lambda(366)=  0.031486865565
  lambda(367)=  0.031488311647
  lambda(368)=  0.031488315735
  lambda(369)=  0.040010098971
  lambda(370)=  0.040010118152
  lambda(371)=  0.040010742015
  lambda(372)=  0.040010747861
  lambda(373)=  0.040011309226
  lambda(374)=  0.040011316561
  lambda(375)=  0.040012346512
  lambda(376)=  0.040012350538
  lambda(377)=  0.040014248134
  lambda(378)=  0.040014262932
  lambda(379)=  0.040015363974
  lambda(380)=  0.040015381969
  lambda(381)=  0.044035384566
  lambda(382)=  0.044035391167
  lambda(383)=  0.079518634604
  lambda(384)=  0.079518645104
  lambda(385)=  0.079532105717
  lambda(386)=  0.079532127336
  lambda(387)=  0.079532242129
  lambda(388)=  0.079532246242
  lambda(389)=  0.088628161218
  lambda(390)=  0.088628640335
  lambda(391)=  0.088637905251
  lambda(392)=  0.088638526490
  lambda(393)=  0.088654051684
  lambda(394)=  0.088654408826
  lambda(395)=  0.089989103992
  lambda(396)=  0.089994862391
  lambda(397)=  0.089999266996
  lambda(398)=  0.090009465055
  lambda(399)=  0.090457163529
  lambda(400)=  0.090472436565
  lambda(401)=  0.093694562492
  lambda(402)=  0.093726736514
  lambda(403)=  0.093743716734
  lambda(404)=  0.093746286107
  lambda(405)=  0.108420286597
  lambda(406)=  0.108421159711
  lambda(407)=  0.109790762112
  lambda(408)=  0.109800942266
  lambda(409)=  0.109808541956
  lambda(410)=  0.109809686636
  lambda(411)=  0.109810524624
  lambda(412)=  0.109810796467
  lambda(413)=  0.121527608216
  lambda(414)=  0.121527618170
  lambda(415)=  0.121528835254
  lambda(416)=  0.121528846057
  lambda(417)=  0.121532647882
  lambda(418)=  0.121532651013
  lambda(419)=  0.121533889090
  lambda(420)=  0.121533896154
  lambda(421)=  0.121536101439
  lambda(422)=  0.121536113869
  lambda(423)=  0.121536786365
  lambda(424)=  0.121536792375
  lambda(425)=  0.143785367533
  lambda(426)=  0.143854538284
  lambda(427)=  0.143887955290
  lambda(428)=  0.143903124147
  lambda(429)=  0.151112139985
  lambda(430)=  0.151112145721
  lambda(431)=  0.151112515757
  lambda(432)=  0.151112521252
  lambda(433)=  0.151113302139
  lambda(434)=  0.151113306935
  lambda(435)=  0.151113591163
  lambda(436)=  0.151113594498
  lambda(437)=  0.151118854183
  lambda(438)=  0.151118856042
  lambda(439)=  0.151119856682
  lambda(440)=  0.151119862680
  lambda(441)=  0.200333794199
  lambda(442)=  0.200333796875
  lambda(443)=  0.200334033841
  lambda(444)=  0.200334036218
  lambda(445)=  0.200340604679
  lambda(446)=  0.200340608194
  lambda(447)=  1.000000000000
  lambda(448)=  1.000000000000
  lambda(449)=  1.000000000000
  lambda(450)=  1.000000000000
  lambda(451)=  1.000000000000
  lambda(452)=  1.000000000000
  lambda(453)=  1.000000000000
  lambda(454)=  1.000000000000
  lambda(455)=  1.000000000000
  lambda(456)=  1.000000000000
  lambda(457)=  1.000000000000
  lambda(458)=  1.000000000000
  lambda(459)=  1.000000000000
  lambda(460)=  1.000000000000
  lambda(461)=  1.000000000000
  lambda(462)=  1.000000000000
  lambda(463)=  1.000000000000
  lambda(464)=  1.000000000000
  lambda(465)=  1.000000000000
  lambda(466)=  1.000000000000
  lambda(467)=  1.000000000000
  lambda(468)=  1.000000000000
  lambda(469)=  1.000000000000
  lambda(470)=  1.000000000000
  lambda(471)=  1.000000000000
  lambda(472)=  1.000000000000
 done

                   Extraction of optimally-connected subspace                  
                   ------------------------------------------                  
  Original eigenvalues inside outer window:

  K-point   1   -15.15366 -15.15366 -14.51303 -14.51303 -14.51292 -14.51292 -14.51292 -14.51292 -14.51274 -14.51274 -14.51274 -14.51274 -14.51265 -14.51265 -14.16773 -14.16773 -13.87741 -13.87741 -13.87730 -13.87730
-13.87730 -13.87730 -13.87713 -13.87713 -13.87713 -13.87713 -13.87705 -13.87705 -13.76191 -13.76191 -13.76165 -13.76165 -13.76165 -13.76165 -13.73082 -13.73082 -13.73055 -13.73055 -13.73055 -13.73055
-13.72743 -13.72743 -13.72743 -13.72743 -13.72741 -13.72741 -13.53132 -13.53132 -13.53132 -13.53132 -13.53128 -13.53128 -13.52495 -13.52495 -13.52470 -13.52470 -13.52470 -13.52470 -13.52317 -13.52317
-13.52292 -13.52292 -13.52291 -13.52291  -6.57186  -6.57186  -6.57184  -6.57184  -6.57184  -6.57184  -6.43566  -6.43566  -5.91511  -5.91511  -5.91507  -5.91507  -5.91501  -5.91501  -5.88614  -5.88614
 -5.88614  -5.88614  -5.88606  -5.88606  -5.74485  -5.74485  -5.74475  -5.74475  -5.74475  -5.74475  -5.74461  -5.74461  -5.74461  -5.74461  -5.74452  -5.74452  -5.65613  -5.65613  -5.65612  -5.65612
 -5.65612  -5.65612  -5.65167  -5.65167  -5.65143  -5.65143  -5.65143  -5.65143  -5.52138  -5.52138  -5.52114  -5.52114  -5.52113  -5.52113  -4.93252  -4.93252  -4.93252  -4.93252  -4.93250  -4.93250
 -4.89795  -4.89795  -4.89791  -4.89791  -4.89790  -4.89790  -4.89780  -4.89780  -4.89779  -4.89779  -4.89775  -4.89775  -4.77270  -4.77270  -4.77251  -4.77251  -4.77248  -4.77248  -4.76179  -4.76179
 -4.76159  -4.76159  -4.76156  -4.76156  -4.39724  -4.39724  -4.39720  -4.39720  -4.39718  -4.39718  -4.39714  -4.39714  -4.39712  -4.39712  -4.39708  -4.39708  -4.22848  -4.22848  -4.22838  -4.22838
 -4.22834  -4.22834  -4.09905  -4.09905  -4.09898  -4.09898  -4.09892  -4.09892  -3.96623  -3.96623  -3.96617  -3.96617  -3.96607  -3.96607  -3.93014  -3.93014  -3.93012  -3.93012  -3.93000  -3.93000
 -3.90916  -3.90916  -3.90915  -3.90915  -3.90914  -3.90914  -3.41511  -3.41511  -3.31621  -3.31621  -3.27727  -3.27727  -3.27726  -3.27726  -3.27724  -3.27724  -3.27718  -3.27718  -3.27716  -3.27716
 -3.27714  -3.27714  -3.00266  -3.00266  -3.00265  -3.00265  -3.00263  -3.00263  -2.92223  -2.92223  -2.85101  -2.85101  -2.85088  -2.85088  -2.85082  -2.85082  -2.79781  -2.79781  -2.79777  -2.79777
 -2.79776  -2.79776  -2.79768  -2.79768  -2.79768  -2.79768  -2.79763  -2.79763  -2.79149  -2.79149  -2.79139  -2.79139  -2.79131  -2.79131  -2.54551  -2.54551  -2.54548  -2.54548  -2.54546  -2.54546
 -2.54537  -2.54537  -2.54535  -2.54535  -2.54532  -2.54532  -2.46701  -2.46701  -2.25632  -2.25632  -2.20075  -2.20075  -2.20075  -2.20075  -2.20075  -2.20075  -1.72724  -1.72724  -1.72723  -1.72723
 -1.72723  -1.72723  -1.62672  -1.62672  -1.62668  -1.62668  -1.62668  -1.62668  -1.62649  -1.62649  -1.62649  -1.62649  -1.62646  -1.62646  -1.47638  -1.47638  -1.47620  -1.47620  -1.47611  -1.47611
 -1.35451  -1.35451  -1.35435  -1.35435  -1.35426  -1.35426  -0.94887  -0.94887   0.93278   0.93278   0.93280   0.93280   0.93283   0.93283   0.93294   0.93294   0.93298   0.93298   0.93299   0.93299
  0.95324   0.95324   0.95339   0.95339   0.95341   0.95341   0.95559   0.95559   0.95577   0.95577   0.95577   0.95577   1.08958   1.08958   1.08959   1.08959   1.08965   1.08965   1.11110   1.11110
  1.11116   1.11116   1.11116   1.11116   1.11124   1.11124   1.11124   1.11124   1.11131   1.11131   1.37816   1.37816   1.48033   1.48033   1.48040   1.48040   1.48041   1.48041   1.48047   1.48047
  1.48047   1.48047   1.48055   1.48055   1.48702   1.48702   1.48717   1.48717   1.48721   1.48721   1.48808   1.48808   1.48813   1.48813   1.48816   1.48816   1.56975   1.56975   1.56992   1.56992
  1.56997   1.56997   1.58525   1.58525   1.58703   1.58703   1.76284   1.76284   1.78597   1.78597   1.78606   1.78606   1.78616   1.78616   1.82215   1.82215   1.82225   1.82225   1.82235   1.82235
  2.34050   2.34050   2.34050   2.34050   2.34054   2.34054   2.43135   2.43135   2.43137   2.43137   2.43138   2.43138   2.43145   2.43145   2.43146   2.43146   2.43149   2.43149   2.93512   2.93512
  2.93512   2.93512   2.93515   2.93515   3.00838   3.00838   3.00845   3.00845   3.00855   3.00855   3.04915   3.04915   3.04923   3.04923   3.04932   3.04932   3.10364   3.10364   3.58194   3.58194
  3.74364   3.74364   4.14657   4.14657   4.14659   4.14659   4.14659   4.14659   4.23230   4.23230   4.37528   4.37528   4.37530   4.37530   4.37530   4.37530   4.37535   4.37535   4.37535   4.37535
  4.37537   4.37537   4.61174   4.61174   4.61177   4.61177   4.61177   4.61177   4.61181   4.61181   4.61181   4.61181   4.61183   4.61183   4.72708   4.72708   4.95698   4.95698   4.95698   4.95698
  4.95698   4.95698   4.95700   4.95700   4.95700   4.95700   4.95701   4.95701   5.44637   5.44639   5.44640   5.44644
 +---------------------------------------------------------------------+<-- DIS
 |  Iter     Omega_I(i-1)      Omega_I(i)      Delta (frac.)    Time   |<-- DIS
 +---------------------------------------------------------------------+<-- DIS
       1     609.98573050     607.08063497       4.785E-03      0.00    <-- DIS
       2     607.60032215     605.97975800       2.674E-03      0.44    <-- DIS
       3     606.50176862     605.17281021       2.196E-03      0.88    <-- DIS
       4     605.63862092     604.57780166       1.755E-03      1.32    <-- DIS
       5     604.97221562     604.13664475       1.383E-03      1.75    <-- DIS
       6     604.46233625     603.80791677       1.084E-03      2.19    <-- DIS
       7     604.07381084     603.56187036       8.482E-04      2.63    <-- DIS
       8     603.77808907     603.37698612       6.648E-04      3.07    <-- DIS
       9     603.55285335     603.23758556       5.226E-04      3.51    <-- DIS
      10     603.38100527     603.13216900       4.126E-04      3.95    <-- DIS
      11     603.24958189     603.05224974       3.272E-04      4.38    <-- DIS
      12     603.14880363     602.99152976       2.608E-04      4.82    <-- DIS
      13     603.07130380     602.94531202       2.090E-04      5.26    <-- DIS
      14     603.01153054     602.91007812       1.683E-04      5.70    <-- DIS
      15     602.96529262     602.88318246       1.362E-04      6.14    <-- DIS
      16     602.92941849     602.86262907       1.108E-04      6.58    <-- DIS
      17     602.90150181     602.84690779       9.056E-05      7.01    <-- DIS
      18     602.87971168     602.83487324       7.438E-05      7.45    <-- DIS
      19     602.86265118     602.82565484       6.137E-05      7.89    <-- DIS
      20     602.84925160     602.81858974       5.086E-05      8.33    <-- DIS
      21     602.83869321     602.81317250       4.234E-05      8.79    <-- DIS
      22     602.83034567     602.80901718       3.538E-05      9.24    <-- DIS
      23     602.82372311     602.80582880       2.969E-05      9.68    <-- DIS
      24     602.81845012     602.80338171       2.500E-05     10.12    <-- DIS
      25     602.81423602     602.80150315       2.112E-05     10.56    <-- DIS
      26     602.81085516     602.80006075       1.791E-05     11.00    <-- DIS
      27     602.80813198     602.79895307       1.523E-05     11.44    <-- DIS
      28     602.80592961     602.79810234       1.298E-05     11.88    <-- DIS
      29     602.80414102     602.79744886       1.110E-05     12.32    <-- DIS
      30     602.80268233     602.79694687       9.515E-06     12.77    <-- DIS
      31     602.80148765     602.79656121       8.173E-06     13.21    <-- DIS
      32     602.80050502     602.79626490       7.034E-06     13.65    <-- DIS
      33     602.79969341     602.79603724       6.065E-06     14.10    <-- DIS
      34     602.79902025     602.79586230       5.239E-06     14.54    <-- DIS
      35     602.79845965     602.79572787       4.532E-06     14.98    <-- DIS
      36     602.79799096     602.79562457       3.926E-06     15.42    <-- DIS
      37     602.79759762     602.79554519       3.405E-06     15.86    <-- DIS
      38     602.79726631     602.79548418       2.956E-06     16.30    <-- DIS
      39     602.79698628     602.79543730       2.570E-06     16.74    <-- DIS
      40     602.79674883     602.79540127       2.236E-06     17.18    <-- DIS
      41     602.79654686     602.79537357       1.946E-06     17.62    <-- DIS
      42     602.79637458     602.79535229       1.696E-06     18.06    <-- DIS
      43     602.79622725     602.79533593       1.479E-06     18.51    <-- DIS
      44     602.79610093     602.79532336       1.290E-06     18.97    <-- DIS
      45     602.79599239     602.79531370       1.126E-06     19.41    <-- DIS
      46     602.79589894     602.79530627       9.832E-07     19.85    <-- DIS
      47     602.79581832     602.79530056       8.589E-07     20.31    <-- DIS
      48     602.79574866     602.79529617       7.507E-07     20.77    <-- DIS
      49     602.79568838     602.79529280       6.562E-07     21.22    <-- DIS
      50     602.79563613     602.79529021       5.739E-07     21.66    <-- DIS
      51     602.79559080     602.79528821       5.020E-07     22.10    <-- DIS
      52     602.79555142     602.79528668       4.392E-07     22.54    <-- DIS
      53     602.79551718     602.79528550       3.843E-07     22.98    <-- DIS
[...]
  WF centre   20  (  3.447444, -0.122443,  1.677154 )
  WF centre   21  ( -0.000016, 11.933513,  1.677152 )
  WF centre   22  ( -0.000120, 11.933512,  1.677153 )
  WF centre   23  (  0.000000, 11.944905,  1.677156 )
  WF centre   24  (  0.000000, 11.944904,  1.677149 )
  WF centre   25  (  0.000000, 11.929719,  1.677155 )
  WF centre   26  ( -0.000000, 11.929719,  1.677140 )
  WF centre   27  ( -0.000007,-11.807391,  1.677155 )
  WF centre   28  ( -0.000052,-11.807391,  1.677154 )
  WF centre   29  (  0.000025, 11.814997,  1.677150 )
  WF centre   30  (  0.000183, 11.814999,  1.677157 )
  WF centre   31  ( -3.445028, -0.003932,  1.677152 )
  WF centre   32  ( -3.445040, -0.003932,  1.677153 )
  WF centre   33  ( -3.446046,  0.007465,  1.677141 )
  WF centre   34  ( -3.446045,  0.007464,  1.677179 )
  WF centre   35  ( -3.446044, -0.007710,  1.677139 )
  WF centre   36  ( -3.446044, -0.007710,  1.677142 )
  WF centre   37  ( -3.445597,  0.130073,  1.677154 )
  WF centre   38  ( -3.445600,  0.130075,  1.677149 )
  WF centre   39  ( -3.447626, -0.122441,  1.677151 )
  WF centre   40  ( -3.447608, -0.122441,  1.677156 )
  WF centre   41  ( -5.168719,  2.980437,  1.677152 )
  WF centre   42  ( -5.168647,  2.980437,  1.677153 )
  WF centre   43  ( -5.169056,  2.991827,  1.677134 )
  WF centre   44  ( -5.169057,  2.991827,  1.677149 )
  WF centre   45  ( -5.169063,  2.976656,  1.677153 )
  WF centre   46  ( -5.169063,  2.976657,  1.677112 )
  WF centre   47  (  1.723177, -8.822992,  1.677157 )
  WF centre   48  (  1.723207, -8.822994,  1.677155 )
  WF centre   49  ( -5.169589,  2.861920,  1.677154 )
  WF centre   50  ( -5.169699,  2.861921,  1.677156 )
  WF centre   51  (  0.000060, -5.972640,  1.677152 )
  WF centre   52  ( -0.000017, -5.972640,  1.677152 )
  WF centre   53  ( -0.000001, -5.961251,  1.677143 )
  WF centre   54  (  0.000000, -5.961251,  1.677140 )
  WF centre   55  (  0.000000, -5.976412,  1.677131 )
  WF centre   56  ( -0.000000, -5.976411,  1.677152 )
  WF centre   57  (  0.000024, -5.838629,  1.677158 )
  WF centre   58  ( -0.000007, -5.838628,  1.677156 )
  WF centre   59  ( -0.000090, -6.091159,  1.677150 )
  WF centre   60  (  0.000028, -6.091158,  1.677155 )
  WF centre   61  ( -1.722181, -2.988287,  1.677151 )
  WF centre   62  ( -1.722123, -2.988288,  1.677152 )
  WF centre   63  ( -1.723032, -2.976892,  1.677152 )
  WF centre   64  ( -1.723033, -2.976892,  1.677167 )
  WF centre   65  ( -1.723024, -2.992058,  1.677169 )
  WF centre   66  ( -1.723025, -2.992058,  1.677136 )
  WF centre   67  ( -1.722653, -2.854278,  1.677153 )
  WF centre   68  ( -1.722627, -2.854280,  1.677153 )
  WF centre   69  ( -1.724344, -3.106800,  1.677152 )
  WF centre   70  ( -1.724436, -3.106800,  1.677154 )
  WF centre   71  (  1.723710,  8.949156,  1.677152 )
  WF centre   72  (  1.723724,  8.949156,  1.677152 )
  WF centre   73  (  1.723009,  8.960550,  1.677153 )
  WF centre   74  (  1.723009,  8.960550,  1.677194 )
  WF centre   75  (  1.723018,  8.945373,  1.677150 )
  WF centre   76  (  1.723018,  8.945373,  1.677150 )
  WF centre   77  ( -5.168764, -2.854301,  1.677155 )
  WF centre   78  ( -5.168758, -2.854301,  1.677152 )
  WF centre   79  (  1.721931,  8.830654,  1.677153 )
  WF centre   80  (  1.721911,  8.830654,  1.677150 )
  WF centre   81  ( -1.723683,  8.949155,  1.677153 )
  WF centre   82  ( -1.723681,  8.949156,  1.677153 )
  WF centre   83  ( -1.723010,  8.960550,  1.677149 )
  WF centre   84  ( -1.723009,  8.960550,  1.677155 )
  WF centre   85  ( -1.723018,  8.945373,  1.677139 )
  WF centre   86  ( -1.723018,  8.945372,  1.677140 )
  WF centre   87  (  5.168774, -2.854299,  1.677152 )
  WF centre   88  (  5.168776, -2.854299,  1.677155 )
  WF centre   89  ( -1.721971,  8.830653,  1.677152 )
  WF centre   90  ( -1.721973,  8.830653,  1.677151 )
  WF centre   91  (  1.722121, -2.988288,  1.677152 )
  WF centre   92  (  1.722162, -2.988288,  1.677153 )
  WF centre   93  (  1.723034, -2.976892,  1.677160 )
  WF centre   94  (  1.723033, -2.976892,  1.677133 )
  WF centre   95  (  1.723025, -2.992058,  1.677138 )
  WF centre   96  (  1.723025, -2.992058,  1.677145 )
  WF centre   97  (  1.722625, -2.854281,  1.677158 )
  WF centre   98  (  1.722644, -2.854281,  1.677155 )
  WF centre   99  (  1.724439, -3.106798,  1.677152 )
  WF centre  100  (  1.724375, -3.106797,  1.677154 )
  WF centre  101  (  5.168693,  2.980437,  1.677152 )
  WF centre  102  (  5.168748,  2.980438,  1.677152 )
  WF centre  103  (  5.169057,  2.991827,  1.677142 )
  WF centre  104  (  5.169057,  2.991827,  1.677166 )
  WF centre  105  (  5.169063,  2.976658,  1.677135 )
  WF centre  106  (  5.169063,  2.976658,  1.677151 )
  WF centre  107  ( -1.723190, -8.822994,  1.677156 )
  WF centre  108  ( -1.723163, -8.822994,  1.677154 )
  WF centre  109  (  5.169629,  2.861922,  1.677155 )
  WF centre  110  (  5.169546,  2.861920,  1.677148 )
  WF centre  111  (  3.446655,  5.964804,  1.677152 )
  WF centre  112  (  3.446525,  5.964805,  1.677151 )
  WF centre  113  (  3.446023,  5.976196,  1.677164 )
  WF centre  114  (  3.446023,  5.976195,  1.677171 )
  WF centre  115  (  3.446038,  5.961030,  1.677146 )
  WF centre  116  (  3.446038,  5.961029,  1.677170 )
  WF centre  117  ( -3.445777, -5.838634,  1.677153 )
  WF centre  118  ( -3.445836, -5.838635,  1.677153 )
  WF centre  119  (  3.445063,  5.846305,  1.677147 )
  WF centre  120  (  3.445264,  5.846304,  1.677154 )
  WF centre  121  (  0.000050,  5.964810,  1.677151 )
  WF centre  122  (  0.000057,  5.964809,  1.677153 )
  WF centre  123  (  0.000001,  5.976198,  1.677186 )
  WF centre  124  (  0.000000,  5.976198,  1.677168 )
  WF centre  125  (  0.000000,  5.961031,  1.677161 )
  WF centre  126  ( -0.000000,  5.961031,  1.677127 )
  WF centre  127  (  0.000020,  6.098813,  1.677156 )
  WF centre  128  (  0.000025,  6.098813,  1.677156 )
  WF centre  129  ( -0.000076,  5.846311,  1.677149 )
  WF centre  130  ( -0.000088,  5.846310,  1.677154 )
  WF centre  131  (  1.723002,  2.980445,  1.677152 )
  WF centre  132  (  1.723025,  2.980445,  1.677152 )
  WF centre  133  (  1.723013,  2.991832,  1.677164 )
  WF centre  134  (  1.723014,  2.991833,  1.677173 )
  WF centre  135  (  1.723020,  2.976667,  1.677139 )
  WF centre  136  (  1.723020,  2.976668,  1.677157 )
  WF centre  137  (  1.723010,  3.114466,  1.677156 )
  WF centre  138  (  1.723020,  3.114467,  1.677157 )
  WF centre  139  (  1.723043,  2.861930,  1.677150 )
  WF centre  140  (  1.723009,  2.861933,  1.677149 )
  WF centre  141  ( -1.723001,  2.980445,  1.677152 )
  WF centre  142  ( -1.723032,  2.980445,  1.677154 )
  WF centre  143  ( -1.723013,  2.991833,  1.677163 )
  WF centre  144  ( -1.723014,  2.991833,  1.677133 )
  WF centre  145  ( -1.723019,  2.976669,  1.677154 )
  WF centre  146  ( -1.723020,  2.976668,  1.677124 )
  WF centre  147  ( -1.723011,  3.114465,  1.677156 )
  WF centre  148  ( -1.723023,  3.114464,  1.677151 )
  WF centre  149  ( -1.723043,  2.861933,  1.677149 )
  WF centre  150  ( -1.722999,  2.861933,  1.677159 )
  WF centre  151  ( -3.446661,  5.964804,  1.677152 )
  WF centre  152  ( -3.446644,  5.964804,  1.677154 )
  WF centre  153  ( -3.446023,  5.976195,  1.677135 )
  WF centre  154  ( -3.446022,  5.976196,  1.677142 )
  WF centre  155  ( -3.446038,  5.961030,  1.677153 )
  WF centre  156  ( -3.446038,  5.961029,  1.677105 )
  WF centre  157  (  3.445776, -5.838635,  1.677154 )
  WF centre  158  (  3.445782, -5.838634,  1.677155 )
  WF centre  159  ( -3.445054,  5.846305,  1.677153 )
  WF centre  160  ( -3.445078,  5.846304,  1.677156 )
  WF centre  161  (  1.722996,  0.992057, -0.085857 )
  WF centre  162  (  1.723019,  0.992052, -0.085856 )
  WF centre  163  (  1.723035,  0.979214,  0.037177 )
  WF centre  164  (  1.723027,  0.979213,  0.037180 )
  WF centre  165  (  1.723019,  1.013092,  0.037266 )
  WF centre  166  (  1.723019,  1.013097,  0.037260 )
  WF centre  167  (  1.723047,  0.992042,  3.440162 )
  WF centre  168  (  1.723021,  0.992048,  3.440163 )
  WF centre  169  (  1.723012,  0.979214,  3.317124 )
  WF centre  170  (  1.723023,  0.979214,  3.317128 )
  WF centre  171  (  1.723023,  1.013102,  3.317032 )
  WF centre  172  (  1.723024,  1.013096,  3.317023 )
  WF centre  173  (  5.169034,  0.992030, -0.085857 )
  WF centre  174  (  5.169061,  0.992039, -0.085856 )
  WF centre  175  (  5.169085,  0.979206,  0.037187 )
  WF centre  176  (  5.169074,  0.979207,  0.037179 )
  WF centre  177  (  5.169063,  1.013094,  0.037272 )
  WF centre  178  (  5.169067,  1.013093,  0.037261 )
  WF centre  179  (  5.169096,  0.992057,  3.440160 )
  WF centre  180  (  5.169069,  0.992049,  3.440161 )
  WF centre  181  (  5.169054,  0.979208,  3.317128 )
  WF centre  182  (  5.169066,  0.979207,  3.317119 )
  WF centre  183  (  5.169068,  1.013087,  3.317036 )
  WF centre  184  (  5.169065,  1.013086,  3.317024 )
  WF centre  185  ( -5.169085,  0.992035, -0.085856 )
  WF centre  186  ( -5.169083,  0.992008, -0.085857 )
  WF centre  187  ( -5.169061,  0.979208,  0.037184 )
  WF centre  188  ( -5.169061,  0.979206,  0.037188 )
  WF centre  189  ( -5.169070,  1.013094,  0.037275 )
  WF centre  190  ( -5.169066,  1.013104,  0.037275 )
  WF centre  191  ( -5.169046,  0.992052,  3.440160 )
  WF centre  192  ( -5.169044,  0.992078,  3.440159 )
  WF centre  193  ( -5.169078,  0.979207,  3.317125 )
  WF centre  194  ( -5.169081,  0.979208,  3.317127 )
  WF centre  195  ( -5.169064,  1.013086,  3.317037 )
  WF centre  196  ( -5.169066,  1.013077,  3.317037 )
  WF centre  197  ( -1.723036,  0.992055, -0.085857 )
  WF centre  198  ( -1.723016,  0.992015, -0.085858 )
  WF centre  199  ( -1.723017,  0.979213,  0.037176 )
  WF centre  200  ( -1.723026,  0.979212,  0.037184 )
  WF centre  201  ( -1.723024,  1.013095,  0.037264 )
  WF centre  202  ( -1.723024,  1.013109,  0.037271 )
  WF centre  203  ( -1.723007,  0.992046,  3.440162 )
  WF centre  204  ( -1.723025,  0.992084,  3.440162 )
  WF centre  205  ( -1.723030,  0.979215,  3.317125 )
  WF centre  206  ( -1.723023,  0.979214,  3.317130 )
  WF centre  207  ( -1.723018,  1.013097,  3.317030 )
  WF centre  208  ( -1.723019,  1.013085,  3.317037 )
  WF centre  209  ( -3.446063,  3.976421, -0.085857 )
  WF centre  210  ( -3.446037,  3.976392, -0.085859 )
  WF centre  211  ( -3.446029,  3.963581,  0.037185 )
  WF centre  212  ( -3.446042,  3.963580,  0.037179 )
  WF centre  213  ( -3.446043,  3.997464,  0.037271 )
  WF centre  214  ( -3.446042,  3.997474,  0.037272 )
  WF centre  215  ( -3.446028,  3.976418,  3.440161 )
  WF centre  216  ( -3.446054,  3.976449,  3.440160 )
  WF centre  217  ( -3.446043,  3.963581,  3.317129 )
  WF centre  218  ( -3.446031,  3.963583,  3.317124 )
  WF centre  219  ( -3.446040,  3.997466,  3.317031 )
  WF centre  220  ( -3.446041,  3.997455,  3.317032 )
  WF centre  221  (  1.723010, -4.976661, -0.085857 )
  WF centre  222  (  1.723009, -4.976674, -0.085857 )
  WF centre  223  (  1.723038, -4.989508,  0.037179 )
  WF centre  224  (  1.723042, -4.989508,  0.037180 )
  WF centre  225  (  1.723022, -4.955631,  0.037268 )
  WF centre  226  (  1.723026, -4.955625,  0.037272 )
  WF centre  227  (  1.723027, -4.976680,  3.440161 )
  WF centre  228  (  1.723030, -4.976668,  3.440161 )
  WF centre  229  (  1.723032, -4.989506,  3.317127 )
  WF centre  230  (  1.723027, -4.989507,  3.317127 )
  WF centre  231  (  1.723027, -4.955621,  3.317025 )
  WF centre  232  (  1.723024, -4.955627,  3.317030 )
  WF centre  233  ( -0.000024, -1.992306, -0.085857 )
  WF centre  234  ( -0.000003, -1.992324, -0.085858 )
  WF centre  235  (  0.000010, -2.005148,  0.037178 )
  WF centre  236  (  0.000006, -2.005150,  0.037179 )
  WF centre  237  ( -0.000002, -1.971273,  0.037271 )
  WF centre  238  ( -0.000005, -1.971264,  0.037266 )
  WF centre  239  (  0.000026, -1.992323,  3.440163 )
  WF centre  240  (  0.000000, -1.992304,  3.440162 )
  WF centre  241  ( -0.000011, -2.005148,  3.317129 )
  WF centre  242  ( -0.000005, -2.005147,  3.317131 )
  WF centre  243  (  0.000001, -1.971264,  3.317033 )
  WF centre  244  (  0.000003, -1.971272,  3.317028 )
  WF centre  245  ( -3.446051, -1.992331, -0.085851 )
  WF centre  246  ( -3.446050, -1.992344, -0.085851 )
  WF centre  247  ( -3.446054, -2.005151,  0.037180 )
  WF centre  248  ( -3.446050, -2.005153,  0.037186 )
  WF centre  249  ( -3.446048, -1.971265,  0.037270 )
  WF centre  250  ( -3.446049, -1.971261,  0.037278 )
  WF centre  251  ( -3.446028, -1.992300,  3.440155 )
  WF centre  252  ( -3.446028, -1.992287,  3.440154 )
  WF centre  253  ( -3.446064, -2.005150,  3.317126 )
  WF centre  254  ( -3.446069, -2.005149,  3.317133 )
  WF centre  255  ( -3.446043, -1.971277,  3.317031 )
  WF centre  256  ( -3.446043, -1.971283,  3.317039 )
  WF centre  257  (  0.000005,  9.945126, -0.085842 )
  WF centre  258  ( -0.000013,  9.945105, -0.085842 )
  WF centre  259  ( -0.000002,  9.932291,  0.037183 )
  WF centre  260  (  0.000011,  9.932290,  0.037190 )
  WF centre  261  ( -0.000001,  9.966173,  0.037278 )
  WF centre  262  ( -0.000001,  9.966179,  0.037275 )
  WF centre  263  ( -0.000005,  9.945130,  3.440146 )
  WF centre  264  (  0.000009,  9.945150,  3.440146 )
  WF centre  265  (  0.000001,  9.932292,  3.317119 )
  WF centre  266  ( -0.000010,  9.932293,  3.317126 )
  WF centre  267  (  0.000001,  9.966168,  3.317034 )
  WF centre  268  ( -0.000001,  9.966162,  3.317029 )
  WF centre  269  (  3.446016, -1.992327, -0.085850 )
  WF centre  270  (  3.446042, -1.992307, -0.085849 )
  WF centre  271  (  3.446071, -2.005152,  0.037178 )
  WF centre  272  (  3.446062, -2.005151,  0.037178 )
  WF centre  273  (  3.446045, -1.971268,  0.037268 )
  WF centre  274  (  3.446045, -1.971276,  0.037262 )
  WF centre  275  (  3.446064, -1.992303,  3.440155 )
  WF centre  276  (  3.446042, -1.992324,  3.440156 )
  WF centre  277  (  3.446048, -2.005149,  3.317125 )
  WF centre  278  (  3.446053, -2.005150,  3.317123 )
  WF centre  279  (  3.446047, -1.971276,  3.317030 )
  WF centre  280  (  3.446048, -1.971268,  3.317023 )
  WF centre  281  ( -0.000016, -7.961021, -0.085865 )
  WF centre  282  ( -0.000017, -7.961045, -0.085864 )
  WF centre  283  (  0.000007, -7.973869,  0.037180 )
  WF centre  284  (  0.000007, -7.973868,  0.037180 )
  WF centre  285  ( -0.000002, -7.939988,  0.037268 )
  WF centre  286  (  0.000000, -7.939976,  0.037272 )
  WF centre  287  (  0.000019, -7.961038,  3.440167 )
  WF centre  288  (  0.000016, -7.961013,  3.440168 )
  WF centre  289  ( -0.000009, -7.973867,  3.317127 )
  WF centre  290  ( -0.000007, -7.973868,  3.317128 )
  WF centre  291  (  0.000003, -7.939980,  3.317031 )
  WF centre  292  ( -0.000001, -7.939991,  3.317035 )
  WF centre  293  ( -1.723050, -4.976669, -0.085857 )
  WF centre  294  ( -1.723021, -4.976671, -0.085857 )
  WF centre  295  ( -1.723021, -4.989508,  0.037177 )
  WF centre  296  ( -1.723031, -4.989509,  0.037191 )
  WF centre  297  ( -1.723029, -4.955626,  0.037275 )
  WF centre  298  ( -1.723025, -4.955627,  0.037264 )
  WF centre  299  ( -1.722990, -4.976672,  3.440162 )
  WF centre  300  ( -1.723017, -4.976670,  3.440161 )
  WF centre  301  ( -1.723047, -4.989506,  3.317125 )
  WF centre  302  ( -1.723039, -4.989505,  3.317138 )
  WF centre  303  ( -1.723022, -4.955625,  3.317031 )
  WF centre  304  ( -1.723025, -4.955627,  3.317022 )
  WF centre  305  (  1.722985,  6.960761, -0.085842 )
  WF centre  306  (  1.723063,  6.960774, -0.085842 )
  WF centre  307  (  1.723028,  6.947939,  0.037185 )
  WF centre  308  (  1.722997,  6.947938,  0.037191 )
  WF centre  309  (  1.723017,  6.981826,  0.037281 )
  WF centre  310  (  1.723020,  6.981822,  0.037277 )
  WF centre  311  (  1.723065,  6.960793,  3.440147 )
  WF centre  312  (  1.722985,  6.960781,  3.440147 )
  WF centre  313  (  1.722994,  6.947941,  3.317124 )
  WF centre  314  (  1.723026,  6.947941,  3.317129 )
  WF centre  315  (  1.723022,  6.981814,  3.317034 )
  WF centre  316  (  1.723021,  6.981818,  3.317029 )
  WF centre  317  (  3.446027,  3.976417, -0.085857 )
  WF centre  318  (  3.446038,  3.976415, -0.085856 )
  WF centre  319  (  3.446044,  3.963580,  0.037174 )
  WF centre  320  (  3.446039,  3.963581,  0.037190 )
  WF centre  321  (  3.446039,  3.997465,  0.037273 )
  WF centre  322  (  3.446041,  3.997468,  0.037263 )
  WF centre  323  (  3.446060,  3.976424,  3.440161 )
  WF centre  324  (  3.446052,  3.976424,  3.440163 )
  WF centre  325  (  3.446028,  3.963582,  3.317119 )
  WF centre  326  (  3.446033,  3.963582,  3.317135 )
  WF centre  327  (  3.446043,  3.997463,  3.317033 )
  WF centre  328  (  3.446040,  3.997462,  3.317024 )
  WF centre  329  ( -0.000013,  3.976421, -0.085850 )
  WF centre  330  (  0.000030,  3.976424, -0.085851 )
  WF centre  331  (  0.000005,  3.963584,  0.037184 )
  WF centre  332  ( -0.000014,  3.963585,  0.037183 )
  WF centre  333  ( -0.000001,  3.997471,  0.037275 )
  WF centre  334  ( -0.000001,  3.997469,  0.037267 )
  WF centre  335  (  0.000016,  3.976430,  3.440155 )
  WF centre  336  ( -0.000029,  3.976426,  3.440155 )
  WF centre  337  ( -0.000006,  3.963587,  3.317131 )
  WF centre  338  (  0.000014,  3.963586,  3.317129 )
  WF centre  339  (  0.000001,  3.997466,  3.317037 )
  WF centre  340  (  0.000001,  3.997471,  3.317028 )
  WF centre  341  ( -1.723026,  6.960779, -0.085842 )
  WF centre  342  ( -1.722990,  6.960747, -0.085842 )
  WF centre  343  ( -1.723011,  6.947939,  0.037186 )
  WF centre  344  ( -1.723024,  6.947939,  0.037179 )
  WF centre  345  ( -1.723021,  6.981818,  0.037277 )
  WF centre  346  ( -1.723019,  6.981832,  0.037279 )
  WF centre  347  ( -1.723021,  6.960775,  3.440146 )
  WF centre  348  ( -1.723057,  6.960807,  3.440146 )
  WF centre  349  ( -1.723014,  6.947941,  3.317124 )
  WF centre  350  ( -1.722998,  6.947941,  3.317119 )
  WF centre  351  ( -1.723019,  6.981823,  3.317028 )
  WF centre  352  ( -1.723022,  6.981808,  3.317031 )
 ------------------------------------------------------------------------------
 

 Wannier centres written to file nbse2.noncolin_centres.xyz
  
  Omega Invariant:   1-s^2 =   602.795281589 (Ang^2)
                   -2log s =   680.131745911 (Ang^2)
                    acos^2 =   651.505926934 (Ang^2)
 Time for wannierise          183.587 (sec)

 Writing checkpoint file nbse2.noncolin.chk... done

 *---------------------------------------------------------------------------*
 |                               PLOTTING                                    |
 *---------------------------------------------------------------------------*
 
    1 lattice points in Wigner-Seitz supercell:

      vector   0   0   0   degeneracy:  1
  tot =        1.000
  mp_grid product =            1
 
 Calculating interpolated band-structure
 
 Time to calculate interpolated band structure      14.958 (sec)
 
 Time for plotting             15.669 (sec)
 Total Execution Time         261.463 (sec)

 *===========================================================================*
 |                             TIMING INFORMATION                            |
 *===========================================================================*
 |    Tag                                                Ncalls      Time (s)|
 |---------------------------------------------------------------------------|
 |kmesh: get                                        :         1         0.015|
 |overlap: allocate                                 :         1         0.004|
 |overlap: read                                     :         1         7.076|
 |dis: main                                         :         1        55.071|
 |wann: main                                        :         1       183.587|
 |plot: main                                        :         1        15.669|
 *---------------------------------------------------------------------------*
 
 All done: wannier90 exiting
