
     Program PWSCF v.6.8 starts on  8Nov2023 at 18:22:52 

     This program is part of the open-source Quantum ESPRESSO suite
     for quantum simulation of materials; please cite
         "P. Giannozzi et al., J. Phys.:Condens. Matter 21 395502 (2009);
         "P. Giannozzi et al., J. Phys.:Condens. Matter 29 465901 (2017);
         "P. Giannozzi et al., J. Chem. Phys. 152 154105 (2020);
          URL http://www.quantum-espresso.org", 
     in publications or presentations arising from this work. More details at
     http://www.quantum-espresso.org/quote

     Parallel version (MPI & OpenMP), running on      40 processor cores
     Number of MPI processes:                40
     Threads/MPI process:                     1

     MPI processes distributed on     1 nodes
     R & G space division:  proc/nbgrp/npool/nimage =      40
     139828 MiB available memory on the printing compute node when the environment starts
 
     Reading input from nbse2.noncolin.scf.in

     Current dimensions of program PWSCF are:
     Max number of different atomic species (ntypx) = 10
     Max number of k-points (npk) =  40000
     Max angular momentum in pseudopotentials (lmaxx) =  4
     file Nb.rel-pbe-spn-kjpaw_psl.1.0.0.UPF: wavefunction(s)  4S 4P 4P 4D renormalized
     file Se.rel-pbe-n-kjpaw_psl.1.0.0.UPF: wavefunction(s)  4S renormalized
     Found symmetry operation: I + (  0.2500  0.0000  0.0000)
     This is a supercell, fractional translations are disabled

     Subspace diagonalization in iterative solution of the eigenvalue problem:
     one sub-group per band group will be used
     scalapack distributed-memory algorithm (size of sub-group:  6*  6 procs)

 
     Parallelization info
     --------------------
     sticks:   dense  smooth     PW     G-vecs:    dense   smooth      PW
     Min         701     349     91               162823    57549    7605
     Max         702     350     92               162828    57564    7612
     Sum       28063   13999   3643              6513055  2302489  304271
 
     Using Slab Decomposition
 


     bravais-lattice index     =            4
     lattice parameter (alat)  =      26.0483  a.u.
     unit-cell volume          =   26240.8884 (a.u.)^3
     number of atoms/cell      =           48
     number of atomic types    =            2
     number of electrons       =       400.00
     number of Kohn-Sham states=          480
     kinetic-energy cutoff     =      75.0000  Ry
     charge density cutoff     =     600.0000  Ry
     scf convergence threshold =      1.0E-07
     mixing beta               =       0.7000
     number of iterations used =            8  local-TF  mixing
     Exchange-correlation= SLA  PW   PBX  PBC
                           (   1   4   3   4   0   0   0)
     Non magnetic calculation with spin-orbit


     celldm(1)=  26.048308  celldm(2)=   0.000000  celldm(3)=   1.714389
     celldm(4)=   0.000000  celldm(5)=   0.000000  celldm(6)=   0.000000

     crystal axes: (cart. coord. in units of alat)
               a(1) = (   1.000000   0.000000   0.000000 )  
               a(2) = (  -0.500000   0.866025   0.000000 )  
               a(3) = (   0.000000   0.000000   1.714389 )  

     reciprocal axes: (cart. coord. in units 2 pi/alat)
               b(1) = (  1.000000  0.577350  0.000000 )  
               b(2) = (  0.000000  1.154701  0.000000 )  
               b(3) = (  0.000000  0.000000  0.583298 )  


     PseudoPot. # 1 for Nb read from file:
     /u/jojaibal/QuantumEspresso/pseudopotentials/Nb.rel-pbe-spn-kjpaw_psl.1.0.0.UPF
     MD5 check sum: 2306cb666db741a7975d44936f4113f9
     Pseudo is Projector augmented-wave + core cor, Zval = 13.0
     Generated using &quot;atomic&quot; code by A. Dal Corso  v.6.2.2
     Shape of augmentation charge: PSQ
     Using radial grid of 1227 points, 10 beta functions with: 
                l(1) =   0
                l(2) =   0
                l(3) =   1
                l(4) =   1
                l(5) =   1
                l(6) =   1
                l(7) =   2
                l(8) =   2
                l(9) =   2
               l(10) =   2
     Q(r) pseudized with 0 coefficients 


     PseudoPot. # 2 for Se read from file:
     /u/jojaibal/QuantumEspresso/pseudopotentials/Se.rel-pbe-n-kjpaw_psl.1.0.0.UPF
     MD5 check sum: c57aeb42e1736c5d96bbb16beed8c03e
     Pseudo is Projector augmented-wave + core cor, Zval =  6.0
     Generated using &quot;atomic&quot; code by A. Dal Corso  v.6.3
     Shape of augmentation charge: PSQ
     Using radial grid of 1211 points,  6 beta functions with: 
                l(1) =   0
                l(2) =   0
                l(3) =   1
                l(4) =   1
                l(5) =   1
                l(6) =   1
     Q(r) pseudized with 0 coefficients 


     atomic species   valence    mass     pseudopotential
        Nb            13.00    92.90638     Nb( 1.00)
        Se             6.00    78.96000     Se( 1.00)

      6 Sym. Ops. (no inversion) found



   Cartesian axes

     site n.     atom                  positions (alat units)
         1           Nb  tau(   1) = (   0.0000000   0.0000000   0.1216723  )
         2           Se  tau(   2) = (   0.1250000   0.0721688   0.0000000  )
         3           Se  tau(   3) = (   0.1250000   0.0721688   0.2433446  )
         4           Nb  tau(   4) = (   0.2500000   0.0000000   0.1216723  )
         5           Se  tau(   5) = (   0.3750000   0.0721688   0.0000000  )
         6           Se  tau(   6) = (   0.3750000   0.0721688   0.2433446  )
         7           Nb  tau(   7) = (   0.5000000   0.0000000   0.1216723  )
         8           Se  tau(   8) = (   0.6250000   0.0721688   0.0000000  )
         9           Se  tau(   9) = (   0.6250000   0.0721688   0.2433446  )
        10           Nb  tau(  10) = (   0.7500000   0.0000000   0.1216723  )
        11           Se  tau(  11) = (   0.8750000   0.0721688   0.0000000  )
        12           Se  tau(  12) = (   0.8750000   0.0721688   0.2433446  )
        13           Nb  tau(  13) = (   0.6250000   0.2165064   0.1216723  )
        14           Se  tau(  14) = (   0.7500000   0.2886751   0.0000000  )
        15           Se  tau(  15) = (   0.7500000   0.2886751   0.2433446  )
        16           Nb  tau(  16) = (   0.5000000   0.4330127   0.1216723  )
        17           Se  tau(  17) = (   0.6250000   0.5051815   0.0000000  )
        18           Se  tau(  18) = (   0.6250000   0.5051815   0.2433446  )
        19           Nb  tau(  19) = (   0.3750000   0.6495191   0.1216723  )
        20           Se  tau(  20) = (   0.5000000   0.7216878   0.0000000  )
        21           Se  tau(  21) = (   0.5000000   0.7216878   0.2433446  )
        22           Nb  tau(  22) = (   0.1250000   0.6495191   0.1216723  )
        23           Se  tau(  23) = (   0.2500000   0.7216878   0.0000000  )
        24           Se  tau(  24) = (   0.2500000   0.7216878   0.2433446  )
        25           Nb  tau(  25) = (  -0.1250000   0.6495191   0.1216723  )
        26           Se  tau(  26) = (   0.0000000   0.7216878   0.0000000  )
        27           Se  tau(  27) = (   0.0000000   0.7216878   0.2433446  )
        28           Nb  tau(  28) = (  -0.3750000   0.6495191   0.1216723  )
        29           Se  tau(  29) = (  -0.2500000   0.7216878   0.0000000  )
        30           Se  tau(  30) = (  -0.2500000   0.7216878   0.2433446  )
        31           Nb  tau(  31) = (   0.3750000   0.2165064   0.1216723  )
        32           Se  tau(  32) = (   0.5000000   0.2886751   0.0000000  )
        33           Se  tau(  33) = (   0.5000000   0.2886751   0.2433446  )
        34           Nb  tau(  34) = (   0.2500000   0.4330127   0.1216723  )
        35           Se  tau(  35) = (   0.3750000   0.5051815   0.0000000  )
        36           Se  tau(  36) = (   0.3750000   0.5051815   0.2433446  )
        37           Nb  tau(  37) = (   0.0000000   0.4330127   0.1216723  )
        38           Se  tau(  38) = (   0.1250000   0.5051815   0.0000000  )
        39           Se  tau(  39) = (   0.1250000   0.5051815   0.2433446  )
        40           Nb  tau(  40) = (   0.1250000   0.2165064   0.1216723  )
        41           Se  tau(  41) = (   0.2500000   0.2886751   0.0000000  )
        42           Se  tau(  42) = (   0.2500000   0.2886751   0.2433446  )
        43           Nb  tau(  43) = (  -0.1250000   0.2165064   0.1216723  )
        44           Se  tau(  44) = (   0.0000000   0.2886751   0.0000000  )
        45           Se  tau(  45) = (   0.0000000   0.2886751   0.2433446  )
        46           Nb  tau(  46) = (  -0.2500000   0.4330127   0.1216723  )
        47           Se  tau(  47) = (  -0.1250000   0.5051815   0.0000000  )
        48           Se  tau(  48) = (  -0.1250000   0.5051815   0.2433446  )

     number of k points=     7  Methfessel-Paxton smearing, width (Ry)=  0.0200
                       cart. coord. in units 2pi/alat
        k(    1) = (   0.0000000   0.0000000   0.0000000), wk =   0.0277778
        k(    2) = (   0.0000000   0.1924501   0.0000000), wk =   0.1666667
        k(    3) = (   0.0000000   0.3849002   0.0000000), wk =   0.1666667
        k(    4) = (   0.0000000  -0.5773503   0.0000000), wk =   0.0833333
        k(    5) = (   0.1666667   0.2886751   0.0000000), wk =   0.1666667
        k(    6) = (   0.1666667   0.4811252   0.0000000), wk =   0.3333333
        k(    7) = (   0.3333333   0.5773503   0.0000000), wk =   0.0555556

     Dense  grid:  6513055 G-vectors     FFT dimensions: ( 216, 216, 360)

     Smooth grid:  2302489 G-vectors     FFT dimensions: ( 144, 144, 250)

     Estimated max dynamical RAM per process >       2.79 GB

     Estimated total dynamical RAM >     111.53 GB

     Initial potential from superposition of free atoms

     starting charge  399.97636, renormalised to  400.00000

     negative rho (up, down):  2.636E-03 0.000E+00
     Starting wfcs are  672 randomized atomic wfcs
     Checking if some PAW data can be deallocated... 

     total cpu time spent up to now is      180.6 secs

     Self-consistent Calculation

     iteration #  1     ecut=    75.00 Ry     beta= 0.70
     Davidson diagonalization with overlap
     ethr =  1.00E-02,  avg # of iterations =  2.0

     Threshold (ethr) on eigenvalues was too large:
     Diagonalizing with lowered threshold

     Davidson diagonalization with overlap
     ethr =  3.10E-04,  avg # of iterations =  2.7

     negative rho (up, down):  3.650E-06 0.000E+00

     total cpu time spent up to now is      912.3 secs

     total energy              =  -11422.44069951 Ry
     estimated scf accuracy    <       1.55512687 Ry

     iteration #  2     ecut=    75.00 Ry     beta= 0.70
     Davidson diagonalization with overlap
     ethr =  3.89E-04,  avg # of iterations =  1.0

     total cpu time spent up to now is     1215.3 secs

     total energy              =  -11422.21505794 Ry
     estimated scf accuracy    <       0.67615692 Ry

     iteration #  3     ecut=    75.00 Ry     beta= 0.70
     Davidson diagonalization with overlap
     ethr =  1.69E-04,  avg # of iterations =  2.0

     total cpu time spent up to now is     1602.2 secs

     total energy              =  -11422.32737428 Ry
     estimated scf accuracy    <       0.06839744 Ry

     iteration #  4     ecut=    75.00 Ry     beta= 0.70
     Davidson diagonalization with overlap
     ethr =  1.71E-05,  avg # of iterations =  2.0

     total cpu time spent up to now is     1949.7 secs

     total energy              =  -11422.32625000 Ry
     estimated scf accuracy    <       0.04237869 Ry

     iteration #  5     ecut=    75.00 Ry     beta= 0.70
     Davidson diagonalization with overlap
     ethr =  1.06E-05,  avg # of iterations =  2.6

     negative rho (up, down):  9.398E-08 0.000E+00

     total cpu time spent up to now is     2267.2 secs

     total energy              =  -11422.32015830 Ry
     estimated scf accuracy    <       0.02802258 Ry

     iteration #  6     ecut=    75.00 Ry     beta= 0.70
     Davidson diagonalization with overlap
     ethr =  7.01E-06,  avg # of iterations =  2.6

     negative rho (up, down):  8.383E-03 0.000E+00

     total cpu time spent up to now is     2609.0 secs

     total energy              =  -11422.31783485 Ry
     estimated scf accuracy    <       0.01376208 Ry

     iteration #  7     ecut=    75.00 Ry     beta= 0.70
     Davidson diagonalization with overlap
     ethr =  3.44E-06,  avg # of iterations =  4.1

     negative rho (up, down):  1.580E-02 0.000E+00

     total cpu time spent up to now is     2996.5 secs

     total energy              =  -11422.31816174 Ry
     estimated scf accuracy    <       0.00622221 Ry

     iteration #  8     ecut=    75.00 Ry     beta= 0.70
     Davidson diagonalization with overlap
     ethr =  1.56E-06,  avg # of iterations =  2.7

     negative rho (up, down):  5.720E-02 0.000E+00

     total cpu time spent up to now is     3328.5 secs

     total energy              =  -11422.31864256 Ry
     estimated scf accuracy    <       0.00368705 Ry

     iteration #  9     ecut=    75.00 Ry     beta= 0.70
     Davidson diagonalization with overlap
     ethr =  9.22E-07,  avg # of iterations =  3.0

     negative rho (up, down):  4.408E-02 0.000E+00

     total cpu time spent up to now is     3690.5 secs

     total energy              =  -11422.31874173 Ry
     estimated scf accuracy    <       0.00092596 Ry

     iteration # 10     ecut=    75.00 Ry     beta= 0.70
     Davidson diagonalization with overlap
     ethr =  2.31E-07,  avg # of iterations =  3.0

     negative rho (up, down):  1.291E-02 0.000E+00

     total cpu time spent up to now is     4028.6 secs

     total energy              =  -11422.31865868 Ry
     estimated scf accuracy    <       0.00029782 Ry

     iteration # 11     ecut=    75.00 Ry     beta= 0.70
     Davidson diagonalization with overlap
     ethr =  7.45E-08,  avg # of iterations =  2.0

     negative rho (up, down):  5.890E-03 0.000E+00

     total cpu time spent up to now is     4389.2 secs

     total energy              =  -11422.31867709 Ry
     estimated scf accuracy    <       0.00003708 Ry

     iteration # 12     ecut=    75.00 Ry     beta= 0.70
     Davidson diagonalization with overlap
     c_bands:  1 eigenvalues not converged
     ethr =  9.27E-09,  avg # of iterations =  6.3

     negative rho (up, down):  3.512E-03 0.000E+00

     total cpu time spent up to now is     4803.6 secs

     total energy              =  -11422.31869693 Ry
     estimated scf accuracy    <       0.00000752 Ry

     iteration # 13     ecut=    75.00 Ry     beta= 0.70
     Davidson diagonalization with overlap
     ethr =  1.88E-09,  avg # of iterations =  4.3

     negative rho (up, down):  2.863E-03 0.000E+00

     total cpu time spent up to now is     5201.9 secs

     total energy              =  -11422.31869980 Ry
     estimated scf accuracy    <       0.00000058 Ry

     iteration # 14     ecut=    75.00 Ry     beta= 0.70
     Davidson diagonalization with overlap
     ethr =  1.44E-10,  avg # of iterations =  5.1

     negative rho (up, down):  2.661E-03 0.000E+00

     total cpu time spent up to now is     5578.0 secs

     End of self-consistent calculation

          k = 0.0000 0.0000 0.0000 (287679 PWs)   bands (ev):

   -56.4895 -56.4895 -56.4780 -56.4780 -56.4780 -56.4780 -56.4780 -56.4780
   -56.4780 -56.4780 -56.4780 -56.4780 -56.4780 -56.4780 -56.4665 -56.4665
   -56.4665 -56.4665 -56.4665 -56.4665 -56.4665 -56.4665 -56.4665 -56.4665
   -56.4665 -56.4665 -56.4665 -56.4665 -56.4665 -56.4665 -56.4665 -56.4665
   -34.0467 -34.0467 -34.0467 -34.0467 -34.0467 -34.0467 -34.0409 -34.0409
   -34.0409 -34.0409 -34.0408 -34.0408 -34.0311 -34.0311 -34.0311 -34.0311
   -34.0311 -34.0311 -33.9999 -33.9999 -33.9999 -33.9999 -33.9999 -33.9999
   -33.9999 -33.9999 -33.9999 -33.9999 -33.9999 -33.9999 -33.9620 -33.9620
   -32.0117 -32.0117 -32.0117 -32.0117 -32.0117 -32.0117 -32.0027 -32.0027
   -32.0027 -32.0027 -32.0027 -32.0027 -31.9763 -31.9763 -31.9763 -31.9763
   -31.9763 -31.9763 -31.9293 -31.9293 -31.9292 -31.9292 -31.9292 -31.9292
   -31.9292 -31.9292 -31.9292 -31.9292 -31.9292 -31.9292 -31.8988 -31.8988
   -31.8988 -31.8988 -31.8988 -31.8988 -31.8940 -31.8940 -31.8940 -31.8940
   -31.8940 -31.8940 -31.8934 -31.8934 -31.8708 -31.8708 -31.8708 -31.8708
   -31.8708 -31.8708 -31.8621 -31.8621 -31.8621 -31.8621 -31.8621 -31.8621
   -31.8621 -31.8621 -31.8621 -31.8621 -31.8621 -31.8621 -31.7998 -31.7998
   -15.1541 -15.1541 -14.5132 -14.5132 -14.5132 -14.5132 -14.5132 -14.5132
   -14.5132 -14.5132 -14.5132 -14.5132 -14.5132 -14.5132 -14.1681 -14.1681
   -13.8776 -13.8776 -13.8776 -13.8776 -13.8776 -13.8776 -13.8776 -13.8776
   -13.8776 -13.8776 -13.8776 -13.8776 -13.7621 -13.7621 -13.7621 -13.7621
   -13.7621 -13.7621 -13.7310 -13.7310 -13.7310 -13.7310 -13.7310 -13.7310
   -13.7278 -13.7278 -13.7278 -13.7278 -13.7278 -13.7278 -13.5317 -13.5317
   -13.5317 -13.5317 -13.5317 -13.5317 -13.5252 -13.5252 -13.5252 -13.5252
   -13.5252 -13.5252 -13.5234 -13.5234 -13.5234 -13.5234 -13.5234 -13.5234
    -6.5723  -6.5723  -6.5723  -6.5723  -6.5722  -6.5722  -6.4360  -6.4360
    -5.9155  -5.9155  -5.9155  -5.9155  -5.9155  -5.9155  -5.8865  -5.8865
    -5.8865  -5.8865  -5.8865  -5.8865  -5.7451  -5.7451  -5.7451  -5.7451
    -5.7451  -5.7451  -5.7450  -5.7450  -5.7450  -5.7450  -5.7450  -5.7450
    -5.6565  -5.6565  -5.6565  -5.6565  -5.6565  -5.6565  -5.6519  -5.6519
    -5.6519  -5.6519  -5.6519  -5.6519  -5.5216  -5.5216  -5.5216  -5.5216
    -5.5216  -5.5216  -4.9329  -4.9329  -4.9329  -4.9329  -4.9329  -4.9329
    -4.8983  -4.8983  -4.8982  -4.8982  -4.8982  -4.8982  -4.8982  -4.8982
    -4.8982  -4.8982  -4.8982  -4.8982  -4.7730  -4.7730  -4.7730  -4.7730
    -4.7729  -4.7729  -4.7620  -4.7620  -4.7620  -4.7620  -4.7620  -4.7620
    -4.3975  -4.3975  -4.3975  -4.3975  -4.3975  -4.3975  -4.3975  -4.3975
    -4.3975  -4.3975  -4.3975  -4.3975  -4.2288  -4.2288  -4.2288  -4.2288
    -4.2288  -4.2288  -4.0994  -4.0994  -4.0994  -4.0994  -4.0994  -4.0994
    -3.9666  -3.9666  -3.9666  -3.9666  -3.9666  -3.9666  -3.9305  -3.9305
    -3.9305  -3.9305  -3.9305  -3.9305  -3.9095  -3.9095  -3.9095  -3.9095
    -3.9095  -3.9095  -3.4155  -3.4155  -3.3166  -3.3166  -3.2776  -3.2776
    -3.2776  -3.2776  -3.2776  -3.2776  -3.2776  -3.2776  -3.2776  -3.2776
    -3.2776  -3.2776  -3.0030  -3.0030  -3.0030  -3.0030  -3.0030  -3.0030
    -2.9226  -2.9226  -2.8513  -2.8513  -2.8513  -2.8513  -2.8513  -2.8513
    -2.7981  -2.7981  -2.7981  -2.7981  -2.7981  -2.7981  -2.7981  -2.7981
    -2.7981  -2.7981  -2.7981  -2.7981  -2.7918  -2.7918  -2.7918  -2.7918
    -2.7918  -2.7918  -2.5458  -2.5458  -2.5458  -2.5458  -2.5458  -2.5458
    -2.5458  -2.5458  -2.5458  -2.5458  -2.5458  -2.5458  -2.4674  -2.4674
    -2.2567  -2.2567  -2.2012  -2.2012  -2.2012  -2.2012  -2.2012  -2.2012
    -1.7276  -1.7276  -1.7276  -1.7276  -1.7276  -1.7276  -1.6269  -1.6269
    -1.6269  -1.6269  -1.6269  -1.6269  -1.6269  -1.6269  -1.6269  -1.6269
    -1.6269  -1.6269  -1.4766  -1.4766  -1.4766  -1.4766  -1.4766  -1.4766
    -1.3547  -1.3547  -1.3547  -1.3547  -1.3547  -1.3547  -0.9492  -0.9492
     0.9326   0.9326   0.9326   0.9326   0.9326   0.9326   0.9326   0.9326
     0.9326   0.9326   0.9326   0.9326   0.9530   0.9530   0.9530   0.9530
     0.9530   0.9530   0.9554   0.9554   0.9554   0.9554   0.9554   0.9554
     1.0893   1.0893   1.0893   1.0893   1.0893   1.0893   1.1109   1.1109
     1.1109   1.1109   1.1109   1.1109   1.1109   1.1109   1.1109   1.1109
     1.1109   1.1109   1.3778   1.3778   1.4869   1.4869   1.4869   1.4869
     1.4869   1.4869   1.4878   1.4878   1.4878   1.4878   1.4878   1.4878
     1.5689   1.5692   1.5694   1.5695   1.5695   1.5696   1.5865   1.5866

          k = 0.0000 0.1925 0.0000 (287730 PWs)   bands (ev):

   -56.4891 -56.4891 -56.4810 -56.4810 -56.4793 -56.4793 -56.4793 -56.4793
   -56.4763 -56.4763 -56.4763 -56.4763 -56.4750 -56.4750 -56.4682 -56.4682
   -56.4682 -56.4682 -56.4669 -56.4669 -56.4665 -56.4665 -56.4665 -56.4665
   -56.4665 -56.4665 -56.4665 -56.4665 -56.4652 -56.4652 -56.4652 -56.4652
   -34.0519 -34.0519 -34.0466 -34.0466 -34.0427 -34.0427 -34.0399 -34.0399
   -34.0394 -34.0394 -34.0387 -34.0387 -34.0345 -34.0345 -34.0315 -34.0315
   -34.0266 -34.0266 -34.0102 -34.0102 -34.0068 -34.0068 -34.0046 -34.0046
   -33.9963 -33.9963 -33.9946 -33.9946 -33.9898 -33.9898 -33.9633 -33.9633
   -32.0132 -32.0132 -32.0114 -32.0114 -32.0087 -32.0087 -32.0077 -32.0077
   -32.0039 -32.0039 -31.9916 -31.9916 -31.9800 -31.9800 -31.9790 -31.9790
   -31.9711 -31.9711 -31.9487 -31.9487 -31.9398 -31.9398 -31.9383 -31.9383
   -31.9213 -31.9213 -31.9210 -31.9210 -31.9134 -31.9134 -31.9045 -31.9045
   -31.8972 -31.8972 -31.8963 -31.8963 -31.8938 -31.8938 -31.8923 -31.8923
   -31.8918 -31.8918 -31.8897 -31.8897 -31.8723 -31.8723 -31.8722 -31.8722
   -31.8708 -31.8708 -31.8669 -31.8669 -31.8669 -31.8669 -31.8653 -31.8653
   -31.8606 -31.8606 -31.8585 -31.8585 -31.8532 -31.8532 -31.8029 -31.8029
   -15.1338 -15.1338 -14.6896 -14.6896 -14.5924 -14.5924 -14.5896 -14.5896
   -14.4116 -14.4116 -14.4078 -14.4078 -14.3277 -14.3277 -14.1589 -14.1589
   -13.9573 -13.9573 -13.9127 -13.9127 -13.9124 -13.9124 -13.8815 -13.8815
   -13.8559 -13.8559 -13.8310 -13.8310 -13.8307 -13.8307 -13.7943 -13.7943
   -13.7604 -13.7604 -13.7582 -13.7582 -13.7332 -13.7332 -13.7303 -13.7303
   -13.7250 -13.7250 -13.6679 -13.6679 -13.6323 -13.6323 -13.5825 -13.5825
   -13.5808 -13.5808 -13.5447 -13.5447 -13.5314 -13.5314 -13.5310 -13.5310
   -13.5257 -13.5257 -13.5239 -13.5239 -13.4796 -13.4796 -13.4778 -13.4778
    -6.5421  -6.5421  -6.5343  -6.5343  -6.5263  -6.5263  -6.4091  -6.4091
    -5.9779  -5.9779  -5.9493  -5.9493  -5.9095  -5.9095  -5.8920  -5.8920
    -5.8796  -5.8796  -5.8763  -5.8763  -5.8596  -5.8596  -5.8203  -5.8203
    -5.7882  -5.7882  -5.7833  -5.7833  -5.7610  -5.7610  -5.7179  -5.7179
    -5.7112  -5.7112  -5.6932  -5.6932  -5.6670  -5.6670  -5.6544  -5.6544
    -5.6386  -5.6386  -5.6138  -5.6138  -5.5308  -5.5308  -5.4357  -5.4357
    -5.3070  -5.3070  -5.0570  -5.0570  -5.0099  -5.0099  -5.0032  -5.0032
    -4.9351  -4.9351  -4.9289  -4.9289  -4.9249  -4.9249  -4.8372  -4.8372
    -4.8305  -4.8305  -4.8002  -4.8002  -4.7886  -4.7886  -4.7709  -4.7709
    -4.7684  -4.7684  -4.7547  -4.7547  -4.7415  -4.7415  -4.7190  -4.7190
    -4.5935  -4.5935  -4.5649  -4.5649  -4.5506  -4.5506  -4.2346  -4.2346
    -4.2297  -4.2297  -4.2281  -4.2281  -4.2144  -4.2144  -4.2073  -4.2073
    -4.2065  -4.2065  -4.1713  -4.1713  -4.1170  -4.1170  -4.0839  -4.0839
    -4.0738  -4.0738  -4.0452  -4.0452  -3.9386  -3.9386  -3.9094  -3.9094
    -3.8905  -3.8905  -3.8405  -3.8405  -3.8024  -3.8024  -3.6605  -3.6605
    -3.6045  -3.6045  -3.4806  -3.4806  -3.4581  -3.4581  -3.4577  -3.4577
    -3.4567  -3.4567  -3.3254  -3.3254  -3.3132  -3.3132  -3.2650  -3.2650
    -3.0810  -3.0810  -3.0074  -3.0074  -3.0049  -3.0049  -2.9946  -2.9946
    -2.9927  -2.9927  -2.9812  -2.9812  -2.9445  -2.9445  -2.9168  -2.9168
    -2.8728  -2.8728  -2.8619  -2.8619  -2.8474  -2.8474  -2.8053  -2.8053
    -2.7864  -2.7864  -2.7805  -2.7805  -2.7602  -2.7602  -2.7230  -2.7230
    -2.6435  -2.6435  -2.5608  -2.5608  -2.5348  -2.5348  -2.5079  -2.5079
    -2.4768  -2.4768  -2.4682  -2.4682  -2.4412  -2.4412  -2.3946  -2.3946
    -2.3848  -2.3848  -2.3286  -2.3286  -2.2565  -2.2565  -2.2160  -2.2160
    -1.7899  -1.7899  -1.7569  -1.7569  -1.7218  -1.7218  -1.6934  -1.6934
    -1.6899  -1.6899  -1.6140  -1.6140  -1.5945  -1.5945  -1.5409  -1.5409
    -1.5236  -1.5236  -1.4816  -1.4816  -1.4782  -1.4782  -1.4267  -1.4267
    -1.3607  -1.3607  -1.3372  -1.3372  -1.2092  -1.2092  -0.9616  -0.9616
     0.8512   0.8512   0.8574   0.8574   0.8777   0.8777   0.8962   0.8962
     0.8984   0.8984   0.9066   0.9066   0.9211   0.9211   0.9315   0.9315
     0.9605   0.9605   0.9686   0.9686   0.9694   0.9694   1.0011   1.0011
     1.0501   1.0501   1.0781   1.0781   1.0830   1.0830   1.0989   1.0989
     1.1128   1.1128   1.1301   1.1301   1.1534   1.1534   1.1725   1.1725
     1.2021   1.2021   1.3170   1.3170   1.3337   1.3337   1.3659   1.3660
     1.3720   1.3720   1.3722   1.3723   1.4144   1.4144   1.4514   1.4514
     1.4629   1.4629   1.4805   1.4806   1.5040   1.5040   1.5262   1.5264

          k = 0.0000 0.3849 0.0000 (287830 PWs)   bands (ev):

   -56.4880 -56.4880 -56.4838 -56.4838 -56.4801 -56.4801 -56.4801 -56.4801
   -56.4744 -56.4744 -56.4744 -56.4744 -56.4723 -56.4723 -56.4702 -56.4702
   -56.4702 -56.4702 -56.4681 -56.4681 -56.4665 -56.4665 -56.4665 -56.4665
   -56.4665 -56.4665 -56.4665 -56.4665 -56.4644 -56.4644 -56.4644 -56.4644
   -34.0552 -34.0552 -34.0462 -34.0462 -34.0443 -34.0443 -34.0366 -34.0366
   -34.0365 -34.0365 -34.0352 -34.0352 -34.0326 -34.0326 -34.0320 -34.0320
   -34.0213 -34.0213 -34.0200 -34.0200 -34.0148 -34.0148 -34.0099 -34.0099
   -33.9941 -33.9941 -33.9913 -33.9913 -33.9806 -33.9806 -33.9669 -33.9669
   -32.0169 -32.0169 -32.0125 -32.0125 -32.0067 -32.0067 -32.0016 -32.0016
   -32.0000 -32.0000 -31.9857 -31.9857 -31.9823 -31.9823 -31.9789 -31.9789
   -31.9686 -31.9686 -31.9645 -31.9645 -31.9521 -31.9521 -31.9477 -31.9477
   -31.9158 -31.9158 -31.9158 -31.9158 -31.9082 -31.9082 -31.9033 -31.9033
   -31.8992 -31.8992 -31.8951 -31.8951 -31.8901 -31.8901 -31.8877 -31.8877
   -31.8844 -31.8844 -31.8841 -31.8841 -31.8764 -31.8764 -31.8763 -31.8763
   -31.8726 -31.8726 -31.8706 -31.8706 -31.8702 -31.8702 -31.8692 -31.8692
   -31.8602 -31.8602 -31.8562 -31.8562 -31.8399 -31.8399 -31.8117 -31.8117
   -15.0739 -15.0739 -14.8467 -14.8467 -14.6414 -14.6414 -14.6369 -14.6369
   -14.2900 -14.2900 -14.2815 -14.2815 -14.1450 -14.1450 -14.1317 -14.1317
   -14.0285 -14.0285 -14.0160 -14.0160 -13.9963 -13.9963 -13.9343 -13.9343
   -13.9339 -13.9339 -13.8456 -13.8456 -13.7748 -13.7748 -13.7741 -13.7741
   -13.7554 -13.7554 -13.7404 -13.7404 -13.7284 -13.7284 -13.7247 -13.7247
   -13.7131 -13.7131 -13.6464 -13.6464 -13.6450 -13.6450 -13.6073 -13.6073
   -13.5822 -13.5822 -13.5689 -13.5689 -13.5303 -13.5303 -13.5294 -13.5294
   -13.5269 -13.5269 -13.5254 -13.5254 -13.4502 -13.4502 -13.4484 -13.4484
    -6.4474  -6.4474  -6.4324  -6.4324  -6.3942  -6.3942  -6.3302  -6.3302
    -6.1283  -6.1283  -6.1022  -6.1022  -6.0465  -6.0465  -5.9548  -5.9548
    -5.9382  -5.9382  -5.8751  -5.8751  -5.8388  -5.8388  -5.8382  -5.8382
    -5.8200  -5.8200  -5.8174  -5.8174  -5.8125  -5.8125  -5.8022  -5.8022
    -5.7283  -5.7283  -5.7166  -5.7166  -5.6702  -5.6702  -5.6607  -5.6607
    -5.6139  -5.6139  -5.5543  -5.5543  -5.4889  -5.4889  -5.2022  -5.2022
    -5.0834  -5.0834  -5.0738  -5.0738  -5.0593  -5.0593  -5.0435  -5.0435
    -4.9900  -4.9900  -4.9468  -4.9468  -4.9183  -4.9183  -4.9146  -4.9146
    -4.9131  -4.9131  -4.9054  -4.9054  -4.8473  -4.8473  -4.8354  -4.8354
    -4.7946  -4.7946  -4.7787  -4.7787  -4.7380  -4.7380  -4.6995  -4.6995
    -4.6673  -4.6673  -4.6653  -4.6653  -4.3402  -4.3402  -4.3308  -4.3308
    -4.2460  -4.2460  -4.1604  -4.1604  -4.1485  -4.1485  -4.1482  -4.1482
    -4.0773  -4.0773  -4.0766  -4.0766  -4.0749  -4.0749  -4.0409  -4.0409
    -3.9949  -3.9949  -3.9867  -3.9867  -3.9370  -3.9370  -3.8338  -3.8338
    -3.7657  -3.7657  -3.7404  -3.7404  -3.7391  -3.7391  -3.6336  -3.6336
    -3.6145  -3.6145  -3.5386  -3.5386  -3.4964  -3.4964  -3.4462  -3.4462
    -3.3746  -3.3746  -3.3413  -3.3413  -3.3151  -3.3151  -3.2697  -3.2697
    -3.1701  -3.1701  -3.0810  -3.0810  -3.0661  -3.0661  -3.0496  -3.0496
    -3.0121  -3.0121  -2.9906  -2.9906  -2.9684  -2.9684  -2.9577  -2.9577
    -2.9146  -2.9146  -2.8859  -2.8859  -2.8793  -2.8793  -2.8575  -2.8575
    -2.8570  -2.8570  -2.8382  -2.8382  -2.7948  -2.7948  -2.6980  -2.6980
    -2.6457  -2.6457  -2.6229  -2.6229  -2.5562  -2.5562  -2.5404  -2.5404
    -2.5284  -2.5284  -2.4667  -2.4667  -2.4327  -2.4327  -2.3360  -2.3360
    -2.3272  -2.3272  -2.2607  -2.2607  -2.2419  -2.2419  -2.2084  -2.2084
    -1.8781  -1.8781  -1.8244  -1.8244  -1.7618  -1.7618  -1.6935  -1.6935
    -1.6811  -1.6811  -1.6007  -1.6007  -1.5729  -1.5729  -1.4990  -1.4990
    -1.4979  -1.4979  -1.4726  -1.4726  -1.4489  -1.4489  -1.3811  -1.3811
    -1.2364  -1.2364  -1.2131  -1.2131  -1.0780  -1.0780  -1.0046  -1.0046
     0.7300   0.7300   0.7331   0.7331   0.8211   0.8211   0.8288   0.8288
     0.8290   0.8290   0.8367   0.8367   0.8608   0.8608   0.8765   0.8765
     0.9901   0.9901   1.0027   1.0027   1.0124   1.0124   1.0171   1.0171
     1.0510   1.0510   1.0715   1.0715   1.0964   1.0964   1.1153   1.1153
     1.1738   1.1738   1.1869   1.1869   1.1901   1.1901   1.1935   1.1935
     1.2031   1.2031   1.2037   1.2037   1.2747   1.2747   1.2867   1.2867
     1.3250   1.3250   1.3411   1.3411   1.3416   1.3416   1.3522   1.3523
     1.3583   1.3583   1.4434   1.4434   1.4638   1.4638   1.5150   1.5150

          k = 0.0000-0.5774 0.0000 (287882 PWs)   bands (ev):

   -56.4861 -56.4861 -56.4861 -56.4861 -56.4804 -56.4804 -56.4804 -56.4804
   -56.4723 -56.4723 -56.4723 -56.4723 -56.4723 -56.4723 -56.4723 -56.4723
   -56.4699 -56.4699 -56.4699 -56.4699 -56.4665 -56.4665 -56.4665 -56.4665
   -56.4665 -56.4665 -56.4665 -56.4665 -56.4641 -56.4641 -56.4641 -56.4641
   -34.0563 -34.0563 -34.0454 -34.0454 -34.0454 -34.0454 -34.0374 -34.0374
   -34.0344 -34.0344 -34.0343 -34.0343 -34.0286 -34.0286 -34.0285 -34.0285
   -34.0234 -34.0234 -34.0234 -34.0234 -34.0157 -34.0157 -34.0157 -34.0157
   -33.9933 -33.9933 -33.9902 -33.9902 -33.9728 -33.9728 -33.9728 -33.9728
   -32.0188 -32.0188 -32.0100 -32.0100 -32.0100 -32.0100 -31.9938 -31.9938
   -31.9938 -31.9938 -31.9863 -31.9863 -31.9863 -31.9863 -31.9830 -31.9830
   -31.9654 -31.9654 -31.9654 -31.9654 -31.9565 -31.9565 -31.9565 -31.9565
   -31.9140 -31.9140 -31.9137 -31.9137 -31.9095 -31.9095 -31.8999 -31.8999
   -31.8979 -31.8979 -31.8979 -31.8979 -31.8828 -31.8828 -31.8828 -31.8828
   -31.8819 -31.8819 -31.8819 -31.8819 -31.8786 -31.8786 -31.8786 -31.8786
   -31.8767 -31.8767 -31.8767 -31.8767 -31.8702 -31.8702 -31.8702 -31.8702
   -31.8602 -31.8602 -31.8555 -31.8555 -31.8248 -31.8248 -31.8248 -31.8248
   -14.9768 -14.9768 -14.9768 -14.9768 -14.6579 -14.6579 -14.6529 -14.6529
   -14.1554 -14.1554 -14.1554 -14.1554 -14.1415 -14.1415 -14.1415 -14.1415
   -14.0876 -14.0876 -14.0876 -14.0876 -13.9792 -13.9792 -13.9792 -13.9792
   -13.9416 -13.9416 -13.9412 -13.9412 -13.7483 -13.7483 -13.7483 -13.7483
   -13.7262 -13.7262 -13.7262 -13.7262 -13.7120 -13.7120 -13.7120 -13.7120
   -13.7110 -13.7110 -13.7110 -13.7110 -13.6402 -13.6402 -13.6402 -13.6402
   -13.5864 -13.5864 -13.5470 -13.5470 -13.5286 -13.5286 -13.5286 -13.5286
   -13.5274 -13.5274 -13.5274 -13.5274 -13.4400 -13.4400 -13.4383 -13.4383
    -6.3008  -6.3008  -6.3008  -6.3008  -6.2794  -6.2794  -6.2794  -6.2794
    -6.2054  -6.2054  -6.2054  -6.2054  -6.1925  -6.1925  -6.1925  -6.1925
    -5.9729  -5.9729  -5.8636  -5.8636  -5.8408  -5.8408  -5.8315  -5.8315
    -5.8231  -5.8231  -5.7941  -5.7941  -5.7786  -5.7786  -5.7786  -5.7786
    -5.7692  -5.7692  -5.7692  -5.7692  -5.6672  -5.6672  -5.6672  -5.6672
    -5.5844  -5.5844  -5.5844  -5.5844  -5.2916  -5.2916  -5.2916  -5.2916
    -5.0525  -5.0525  -5.0525  -5.0525  -5.0133  -5.0133  -5.0133  -5.0133
    -4.9782  -4.9782  -4.9782  -4.9782  -4.9136  -4.9136  -4.9136  -4.9136
    -4.8860  -4.8860  -4.8860  -4.8860  -4.8755  -4.8755  -4.8755  -4.8755
    -4.8623  -4.8623  -4.8623  -4.8623  -4.8285  -4.8285  -4.8093  -4.8093
    -4.6270  -4.6270  -4.6256  -4.6256  -4.3768  -4.3768  -4.3617  -4.3617
    -4.1306  -4.1306  -4.0704  -4.0704  -4.0704  -4.0704  -4.0027  -4.0027
    -3.9960  -3.9960  -3.9960  -3.9960  -3.9959  -3.9959  -3.9857  -3.9857
    -3.9856  -3.9856  -3.9599  -3.9599  -3.9504  -3.9504  -3.9504  -3.9504
    -3.9119  -3.9119  -3.9119  -3.9119  -3.7410  -3.7410  -3.7410  -3.7410
    -3.5255  -3.5255  -3.4879  -3.4879  -3.4879  -3.4879  -3.4424  -3.4424
    -3.1780  -3.1780  -3.1780  -3.1780  -3.1606  -3.1606  -3.1606  -3.1606
    -3.1448  -3.1448  -3.1448  -3.1448  -3.1192  -3.1192  -3.1143  -3.1143
    -3.0572  -3.0572  -3.0572  -3.0572  -2.9936  -2.9936  -2.9790  -2.9790
    -2.9790  -2.9790  -2.9451  -2.9451  -2.9228  -2.9228  -2.9228  -2.9228
    -2.8825  -2.8825  -2.8825  -2.8825  -2.8613  -2.8613  -2.8612  -2.8612
    -2.6907  -2.6907  -2.6907  -2.6907  -2.5686  -2.5686  -2.5686  -2.5686
    -2.4676  -2.4676  -2.4676  -2.4676  -2.3345  -2.3345  -2.3345  -2.3345
    -2.2720  -2.2720  -2.2547  -2.2547  -2.2547  -2.2547  -2.1305  -2.1305
    -1.8813  -1.8813  -1.8813  -1.8813  -1.7396  -1.7396  -1.7396  -1.7396
    -1.6459  -1.6459  -1.6459  -1.6459  -1.5356  -1.5356  -1.5356  -1.5356
    -1.4470  -1.4470  -1.4230  -1.4230  -1.4230  -1.4230  -1.4221  -1.4221
    -1.1611  -1.1611  -1.0925  -1.0925  -1.0925  -1.0925  -1.0223  -1.0223
     0.6761   0.6761   0.6763   0.6763   0.7868   0.7868   0.7869   0.7869
     0.8107   0.8107   0.8148   0.8148   0.8148   0.8148   0.8467   0.8467
     1.0246   1.0246   1.0246   1.0246   1.0428   1.0428   1.0428   1.0428
     1.0636   1.0636   1.0636   1.0636   1.1139   1.1139   1.1420   1.1420
     1.1420   1.1420   1.1567   1.1567   1.1981   1.1981   1.2109   1.2109
     1.2109   1.2109   1.2381   1.2381   1.2381   1.2381   1.2631   1.2631
     1.2686   1.2686   1.2686   1.2686   1.2794   1.2794   1.2794   1.2794
     1.4459   1.4459   1.4459   1.4459   1.4651   1.4651   1.4651   1.4651

          k = 0.1667 0.2887 0.0000 (287748 PWs)   bands (ev):

   -56.4883 -56.4883 -56.4822 -56.4822 -56.4822 -56.4822 -56.4773 -56.4773
   -56.4772 -56.4772 -56.4735 -56.4735 -56.4735 -56.4735 -56.4703 -56.4703
   -56.4681 -56.4681 -56.4681 -56.4681 -56.4673 -56.4673 -56.4673 -56.4673
   -56.4661 -56.4661 -56.4653 -56.4653 -56.4653 -56.4653 -56.4643 -56.4643
   -34.0557 -34.0513 -34.0513 -34.0457 -34.0400 -34.0400 -34.0399 -34.0398
   -34.0378 -34.0366 -34.0360 -34.0359 -34.0349 -34.0349 -34.0318 -34.0277
   -34.0277 -34.0206 -34.0171 -34.0171 -34.0143 -34.0143 -34.0044 -34.0044
   -34.0005 -34.0005 -33.9864 -33.9864 -33.9852 -33.9852 -33.9658 -33.9657
   -32.0167 -32.0154 -32.0127 -32.0126 -32.0073 -32.0072 -32.0043 -32.0021
   -32.0021 -31.9945 -31.9945 -31.9847 -31.9846 -31.9800 -31.9769 -31.9763
   -31.9763 -31.9616 -31.9603 -31.9603 -31.9576 -31.9576 -31.9322 -31.9322
   -31.9303 -31.9303 -31.9112 -31.9084 -31.9084 -31.9080 -31.9080 -31.9008
   -31.8994 -31.8994 -31.8947 -31.8946 -31.8940 -31.8940 -31.8877 -31.8877
   -31.8865 -31.8865 -31.8861 -31.8860 -31.8765 -31.8763 -31.8723 -31.8723
   -31.8721 -31.8721 -31.8701 -31.8700 -31.8689 -31.8689 -31.8683 -31.8683
   -31.8649 -31.8649 -31.8495 -31.8495 -31.8474 -31.8474 -31.8090 -31.8087
   -15.0938 -15.0936 -14.7588 -14.7588 -14.7569 -14.7569 -14.4700 -14.4700
   -14.4636 -14.4636 -14.2276 -14.2275 -14.2227 -14.2226 -14.1407 -14.1407
   -14.0243 -14.0037 -13.9882 -13.9882 -13.9881 -13.9881 -13.8712 -13.8712
   -13.8563 -13.8563 -13.8558 -13.8558 -13.8475 -13.8475 -13.7923 -13.7923
   -13.7846 -13.7846 -13.7484 -13.7484 -13.7481 -13.7480 -13.7112 -13.6951
   -13.6720 -13.6720 -13.6493 -13.6479 -13.6386 -13.6386 -13.6013 -13.5799
   -13.5799 -13.5784 -13.5784 -13.5618 -13.5569 -13.5569 -13.5564 -13.5564
   -13.5176 -13.5167 -13.4842 -13.4841 -13.4824 -13.4824 -13.4460 -13.4442
    -6.4903  -6.4740  -6.4528  -6.4528  -6.4462  -6.4462  -6.3563  -6.3561
    -6.0352  -6.0352  -5.9983  -5.9983  -5.9922  -5.9922  -5.9842  -5.9842
    -5.9481  -5.9456  -5.9456  -5.9428  -5.9428  -5.8350  -5.8350  -5.8312
    -5.8312  -5.8144  -5.8096  -5.8096  -5.7945  -5.7883  -5.7851  -5.7226
    -5.7138  -5.7005  -5.7005  -5.6899  -5.6899  -5.6880  -5.6880  -5.6575
    -5.5817  -5.5817  -5.5535  -5.5535  -5.4597  -5.4597  -5.3490  -5.3490
    -5.1791  -5.0669  -5.0669  -5.0588  -5.0587  -5.0443  -4.9377  -4.9377
    -4.9338  -4.9338  -4.9304  -4.9304  -4.9270  -4.9270  -4.9125  -4.9098
    -4.9050  -4.9042  -4.8786  -4.8786  -4.8651  -4.8651  -4.8606  -4.8606
    -4.8582  -4.8582  -4.8082  -4.8082  -4.7921  -4.7921  -4.7612  -4.7549
    -4.5095  -4.4818  -4.4441  -4.4441  -4.4427  -4.4426  -4.4040  -4.4040
    -4.3789  -4.3789  -4.2094  -4.1727  -4.1727  -4.1649  -4.1649  -4.1520
    -4.1123  -4.0682  -4.0682  -4.0389  -4.0389  -4.0034  -3.9833  -3.9430
    -3.9427  -3.9427  -3.9228  -3.9228  -3.9226  -3.9226  -3.9156  -3.9156
    -3.9060  -3.9060  -3.8796  -3.8796  -3.6209  -3.6209  -3.6173  -3.6173
    -3.6168  -3.6168  -3.5870  -3.5869  -3.5757  -3.5715  -3.4637  -3.4637
    -3.4286  -3.4067  -3.4067  -3.3567  -3.3154  -3.3128  -3.1284  -3.1259
    -3.1219  -3.1219  -3.0923  -3.0795  -3.0503  -3.0503  -3.0290  -3.0074
    -2.9925  -2.9925  -2.9853  -2.9853  -2.9801  -2.9801  -2.9687  -2.9687
    -2.9687  -2.9686  -2.9454  -2.9454  -2.8885  -2.8885  -2.8333  -2.8333
    -2.7938  -2.7938  -2.7795  -2.7795  -2.7627  -2.7627  -2.6942  -2.6919
    -2.6919  -2.6401  -2.5906  -2.5547  -2.5412  -2.5412  -2.5319  -2.5319
    -2.4902  -2.4758  -2.4420  -2.4419  -2.4097  -2.4097  -2.3694  -2.3694
    -2.3533  -2.3533  -2.3293  -2.3293  -2.2802  -2.2729  -2.2729  -2.2069
    -1.8382  -1.8382  -1.7879  -1.7879  -1.7478  -1.7478  -1.6733  -1.6684
    -1.6684  -1.6451  -1.6451  -1.6037  -1.6037  -1.6003  -1.6003  -1.5695
    -1.5641  -1.4892  -1.4892  -1.4665  -1.3597  -1.3597  -1.3422  -1.3422
    -1.3348  -1.3348  -1.2345  -1.2345  -1.1896  -1.0519  -0.9895  -0.9891
     0.6928   0.6938   0.8028   0.8028   0.8157   0.8157   0.8161   0.8586
     0.8935   0.8935   0.9060   0.9060   0.9154   0.9154   0.9355   0.9355
     0.9399   0.9399   0.9402   0.9402   0.9609   0.9609   0.9833   0.9833
     1.0656   1.0656   1.0727   1.0727   1.0742   1.1067   1.1358   1.1358
     1.1436   1.1436   1.1670   1.1670   1.1877   1.1877   1.1922   1.1922
     1.2057   1.2057   1.2538   1.2538   1.2999   1.2999   1.3036   1.3185
     1.3310   1.3328   1.3328   1.3473   1.3652   1.3652   1.3997   1.3999
     1.3999   1.4095   1.4095   1.4122   1.4303   1.4303   1.4804   1.5613

          k = 0.1667 0.4811 0.0000 (287831 PWs)   bands (ev):

   -56.4868 -56.4868 -56.4848 -56.4848 -56.4828 -56.4828 -56.4777 -56.4777
   -56.4750 -56.4750 -56.4726 -56.4726 -56.4717 -56.4717 -56.4709 -56.4709
   -56.4699 -56.4699 -56.4688 -56.4688 -56.4679 -56.4679 -56.4676 -56.4676
   -56.4658 -56.4658 -56.4655 -56.4655 -56.4647 -56.4647 -56.4638 -56.4638
   -34.0576 -34.0538 -34.0501 -34.0482 -34.0400 -34.0400 -34.0377 -34.0367
   -34.0367 -34.0357 -34.0343 -34.0326 -34.0325 -34.0307 -34.0298 -34.0265
   -34.0247 -34.0234 -34.0233 -34.0227 -34.0188 -34.0140 -34.0133 -34.0071
   -34.0031 -33.9984 -33.9847 -33.9828 -33.9777 -33.9769 -33.9707 -33.9703
   -32.0194 -32.0172 -32.0156 -32.0144 -32.0038 -31.9991 -31.9986 -31.9958
   -31.9937 -31.9916 -31.9911 -31.9876 -31.9846 -31.9838 -31.9797 -31.9796
   -31.9759 -31.9722 -31.9718 -31.9655 -31.9612 -31.9512 -31.9458 -31.9405
   -31.9277 -31.9258 -31.9149 -31.9060 -31.9051 -31.9027 -31.9010 -31.9009
   -31.9003 -31.8968 -31.8965 -31.8948 -31.8915 -31.8884 -31.8833 -31.8821
   -31.8816 -31.8814 -31.8814 -31.8804 -31.8797 -31.8793 -31.8761 -31.8759
   -31.8754 -31.8747 -31.8733 -31.8721 -31.8721 -31.8717 -31.8715 -31.8708
   -31.8697 -31.8651 -31.8476 -31.8442 -31.8348 -31.8333 -31.8203 -31.8194
   -15.0155 -15.0149 -14.9022 -14.9010 -14.7942 -14.7914 -14.5000 -14.4922
   -14.3289 -14.3182 -14.1771 -14.1616 -14.1132 -14.1051 -14.1050 -14.1025
   -14.0535 -14.0534 -14.0532 -14.0472 -14.0041 -14.0038 -13.9917 -13.9746
   -13.9032 -13.8962 -13.8693 -13.8686 -13.8515 -13.8315 -13.8244 -13.8098
   -13.7911 -13.7902 -13.7206 -13.7194 -13.6953 -13.6945 -13.6935 -13.6804
   -13.6710 -13.6705 -13.6701 -13.6512 -13.6378 -13.6367 -13.6252 -13.6051
   -13.6046 -13.5901 -13.5747 -13.5735 -13.5670 -13.5664 -13.5662 -13.5248
   -13.5042 -13.5030 -13.4927 -13.4912 -13.4622 -13.4605 -13.4283 -13.4266
    -6.3754  -6.3502  -6.3239  -6.3125  -6.2850  -6.2807  -6.2544  -6.2537
    -6.2124  -6.1782  -6.1604  -6.1462  -6.1121  -6.1106  -6.0634  -6.0617
    -6.0609  -6.0115  -6.0114  -5.9821  -5.9779  -5.9718  -5.9681  -5.9122
    -5.9098  -5.8895  -5.8780  -5.7867  -5.7722  -5.7541  -5.6980  -5.6961
    -5.6930  -5.6827  -5.6818  -5.6807  -5.6720  -5.6577  -5.6380  -5.5870
    -5.5424  -5.4990  -5.4861  -5.4174  -5.4147  -5.3896  -5.2622  -5.1894
    -5.1751  -5.1626  -5.0958  -5.0478  -5.0425  -5.0397  -5.0167  -5.0020
    -4.9920  -4.9916  -4.9800  -4.9722  -4.9530  -4.9510  -4.9354  -4.9325
    -4.9208  -4.9152  -4.8971  -4.8902  -4.8901  -4.8873  -4.8838  -4.8748
    -4.8719  -4.8650  -4.8535  -4.8439  -4.8380  -4.8298  -4.8106  -4.7607
    -4.6134  -4.6050  -4.5690  -4.5426  -4.3567  -4.3528  -4.2723  -4.2384
    -4.1468  -4.1280  -4.1197  -4.1145  -4.1080  -4.1039  -4.0695  -4.0656
    -4.0449  -4.0440  -4.0197  -4.0109  -3.9909  -3.9829  -3.9787  -3.9734
    -3.9684  -3.9677  -3.9317  -3.9176  -3.9006  -3.8806  -3.8478  -3.8412
    -3.8242  -3.8209  -3.8157  -3.8052  -3.8000  -3.7932  -3.7512  -3.7448
    -3.7344  -3.7247  -3.6438  -3.6260  -3.5731  -3.5420  -3.4081  -3.3849
    -3.2190  -3.1966  -3.1907  -3.1868  -3.1796  -3.1687  -3.1664  -3.1617
    -3.1586  -3.1188  -3.1125  -3.1093  -3.1091  -3.1067  -3.0944  -3.0503
    -3.0494  -3.0471  -3.0298  -3.0136  -2.9971  -2.9718  -2.9713  -2.9632
    -2.9458  -2.9420  -2.9407  -2.9206  -2.9200  -2.9163  -2.9126  -2.9114
    -2.9068  -2.8739  -2.8619  -2.8511  -2.8184  -2.8153  -2.8091  -2.7609
    -2.7131  -2.7007  -2.6994  -2.6582  -2.6376  -2.6235  -2.6083  -2.5922
    -2.5026  -2.4895  -2.4609  -2.4529  -2.4380  -2.3992  -2.3734  -2.3316
    -2.3162  -2.2932  -2.2713  -2.2684  -2.1958  -2.1890  -2.1690  -2.1323
    -1.8664  -1.8219  -1.7993  -1.7946  -1.7453  -1.7116  -1.7079  -1.7066
    -1.7051  -1.6761  -1.6309  -1.6278  -1.6155  -1.6017  -1.5986  -1.5746
    -1.5501  -1.5176  -1.4721  -1.4041  -1.3586  -1.2939  -1.2847  -1.2837
    -1.2761  -1.1717  -1.1699  -1.1474  -1.0879  -1.0548  -1.0545  -0.9405
     0.5683   0.5789   0.7355   0.7393   0.7490   0.7497   0.7642   0.7670
     0.8236   0.8374   0.8774   0.8932   0.8986   0.9108   0.9250   0.9514
     0.9625   0.9762   0.9859   0.9876   1.0088   1.0187   1.0268   1.0280
     1.0317   1.0319   1.0495   1.0518   1.0526   1.0655   1.1051   1.1465
     1.1549   1.1801   1.1920   1.2011   1.2023   1.2026   1.2041   1.2092
     1.2149   1.2245   1.2307   1.2308   1.2370   1.2388   1.2458   1.2615
     1.2861   1.2905   1.2974   1.3052   1.3094   1.3161   1.3207   1.3267
     1.3579   1.3651   1.3678   1.3987   1.4050   1.4107   1.4916   1.5295

          k = 0.3333 0.5774 0.0000 (287970 PWs)   bands (ev):

   -56.4851 -56.4851 -56.4851 -56.4851 -56.4851 -56.4851 -56.4752 -56.4752
   -56.4752 -56.4752 -56.4751 -56.4751 -56.4694 -56.4694 -56.4694 -56.4694
   -56.4694 -56.4694 -56.4694 -56.4694 -56.4694 -56.4694 -56.4694 -56.4694
   -56.4652 -56.4652 -56.4652 -56.4652 -56.4652 -56.4652 -56.4637 -56.4636
   -34.0585 -34.0514 -34.0514 -34.0514 -34.0380 -34.0368 -34.0368 -34.0368
   -34.0333 -34.0333 -34.0333 -34.0333 -34.0333 -34.0333 -34.0266 -34.0266
   -34.0266 -34.0266 -34.0266 -34.0266 -34.0128 -34.0128 -34.0128 -34.0062
   -34.0062 -34.0062 -33.9767 -33.9767 -33.9767 -33.9757 -33.9757 -33.9757
   -32.0203 -32.0171 -32.0171 -32.0171 -31.9936 -31.9936 -31.9936 -31.9900
   -31.9900 -31.9900 -31.9900 -31.9900 -31.9900 -31.9813 -31.9813 -31.9813
   -31.9813 -31.9813 -31.9813 -31.9786 -31.9434 -31.9434 -31.9434 -31.9378
   -31.9378 -31.9378 -31.9174 -31.9039 -31.9001 -31.9001 -31.9001 -31.8994
   -31.8994 -31.8994 -31.8919 -31.8919 -31.8919 -31.8887 -31.8887 -31.8887
   -31.8767 -31.8767 -31.8767 -31.8757 -31.8757 -31.8757 -31.8757 -31.8757
   -31.8757 -31.8750 -31.8750 -31.8750 -31.8750 -31.8750 -31.8750 -31.8729
   -31.8729 -31.8729 -31.8331 -31.8331 -31.8331 -31.8310 -31.8310 -31.8309
   -14.9209 -14.9209 -14.9209 -14.9194 -14.9194 -14.9194 -14.3421 -14.3421
   -14.3421 -14.3307 -14.3307 -14.3307 -14.0619 -14.0619 -14.0619 -14.0618
   -14.0617 -14.0617 -13.9531 -13.9531 -13.9531 -13.9531 -13.9531 -13.9531
   -13.9404 -13.9404 -13.9404 -13.9404 -13.9404 -13.9404 -13.7966 -13.7966
   -13.7966 -13.7957 -13.7957 -13.7957 -13.6544 -13.6544 -13.6544 -13.6244
   -13.6244 -13.6244 -13.6239 -13.6239 -13.6239 -13.6239 -13.6239 -13.6239
   -13.6231 -13.6230 -13.6230 -13.6230 -13.6230 -13.6230 -13.5524 -13.5097
   -13.4808 -13.4808 -13.4808 -13.4794 -13.4794 -13.4793 -13.4207 -13.4190
    -6.2414  -6.2414  -6.2414  -6.2043  -6.2043  -6.2043  -6.1351  -6.1351
    -6.1351  -6.1351  -6.1351  -6.1350  -6.1345  -6.1345  -6.1345  -6.1325
    -6.1325  -6.1325  -6.1294  -6.1294  -6.1294  -6.1294  -6.1294  -6.1294
    -6.0383  -5.9040  -5.8295  -5.8295  -5.8295  -5.7264  -5.7264  -5.7264
    -5.6338  -5.6338  -5.6338  -5.6108  -5.6108  -5.6107  -5.5793  -5.4111
    -5.3394  -5.3394  -5.3394  -5.3394  -5.3394  -5.3394  -5.2833  -5.2833
    -5.2833  -5.2833  -5.2833  -5.2833  -5.0676  -5.0284  -5.0284  -5.0284
    -5.0025  -5.0025  -5.0025  -4.9823  -4.9488  -4.9488  -4.9488  -4.9488
    -4.9488  -4.9488  -4.9460  -4.9459  -4.9459  -4.9459  -4.9459  -4.9459
    -4.8592  -4.8592  -4.8592  -4.8423  -4.8423  -4.8423  -4.6602  -4.6132
    -4.5412  -4.5412  -4.5412  -4.4607  -4.4607  -4.4607  -4.1188  -4.1188
    -4.1188  -4.1052  -4.0575  -4.0575  -4.0575  -4.0509  -4.0509  -4.0509
    -3.9977  -3.9977  -3.9977  -3.9874  -3.9874  -3.9874  -3.9504  -3.9504
    -3.9504  -3.9211  -3.9211  -3.9211  -3.9211  -3.9211  -3.9211  -3.9052
    -3.8816  -3.8816  -3.8816  -3.8816  -3.8816  -3.8816  -3.5934  -3.5934
    -3.5934  -3.5825  -3.5825  -3.5825  -3.5624  -3.5624  -3.5624  -3.5557
    -3.5557  -3.5557  -3.2112  -3.1933  -3.1375  -3.1375  -3.1375  -3.1106
    -3.1106  -3.1106  -3.0538  -3.0538  -3.0538  -3.0019  -3.0019  -3.0019
    -2.9800  -2.9800  -2.9800  -2.9738  -2.9738  -2.9738  -2.9551  -2.9551
    -2.9551  -2.8940  -2.8940  -2.8940  -2.8940  -2.8940  -2.8940  -2.8904
    -2.8904  -2.8904  -2.8904  -2.8904  -2.8904  -2.8286  -2.8286  -2.8285
    -2.6748  -2.6748  -2.6748  -2.6748  -2.6748  -2.6748  -2.6635  -2.6635
    -2.6635  -2.6635  -2.6635  -2.6635  -2.3855  -2.3855  -2.3855  -2.2542
    -2.2541  -2.2541  -2.2541  -2.2541  -2.2541  -2.1208  -2.1208  -2.1208
    -1.7547  -1.7547  -1.7547  -1.7547  -1.7547  -1.7547  -1.6847  -1.6847
    -1.6847  -1.6577  -1.6577  -1.6577  -1.6577  -1.6577  -1.6577  -1.6094
    -1.6094  -1.6094  -1.3648  -1.3648  -1.3648  -1.2435  -1.2435  -1.2435
    -1.1493  -1.1493  -1.1493  -1.1475  -1.1475  -1.1475  -1.0357  -0.8815
     0.4974   0.5155   0.7098   0.7098   0.7098   0.7203   0.7203   0.7203
     0.9384   0.9384   0.9384   0.9648   0.9648   0.9648   0.9678   0.9678
     0.9678   0.9678   0.9678   0.9678   0.9866   0.9866   0.9866   0.9866
     0.9866   0.9866   1.0444   1.0444   1.0444   1.0802   1.0802   1.0802
     1.1227   1.1227   1.1227   1.1605   1.1605   1.1605   1.2357   1.2357
     1.2357   1.2478   1.2478   1.2478   1.2901   1.2901   1.2903   1.2944
     1.2944   1.2944   1.2944   1.2944   1.2944   1.3126   1.3126   1.3126
     1.3126   1.3126   1.3126   1.3669   1.3669   1.3669   1.3729   1.3730

     the Fermi energy is    -1.5234 ev

!    total energy              =  -11422.31870036 Ry

     total all-electron energy =   -277794.048049 Ry
     estimated scf accuracy    <       0.00000008 Ry
     smearing contrib. (-TS)   =      -0.01698583 Ry
     internal energy E=F+TS    =  -11422.30171452 Ry

     The total energy is F=E-TS. E is the sum of the following terms:
     one-electron contribution =  -17213.38411993 Ry
     hartree contribution      =    8640.10761712 Ry
     xc contribution           =    -503.66763824 Ry
     ewald contribution        =    6590.29862696 Ry
     one-center paw contrib.   =   -8935.65620043 Ry

     convergence has been achieved in  14 iterations

     Writing output data file ./tmp/adatom.save/
 
     init_run     :    174.51s CPU    178.54s WALL (       1 calls)
     electrons    :   5342.79s CPU   5398.06s WALL (       1 calls)

     Called by init_run:
     wfcinit      :    147.49s CPU    149.63s WALL (       1 calls)
     potinit      :      7.51s CPU      7.79s WALL (       1 calls)
     hinit0       :     11.97s CPU     12.68s WALL (       1 calls)

     Called by electrons:
     c_bands      :   4133.70s CPU   4166.38s WALL (      15 calls)
     sum_band     :   1055.32s CPU   1067.89s WALL (      15 calls)
     v_of_rho     :      8.99s CPU      9.31s WALL (      15 calls)
     newd         :     54.10s CPU     63.67s WALL (      15 calls)
     PAW_pot      :      6.03s CPU      6.31s WALL (      15 calls)
     mix_rho      :     85.72s CPU     86.25s WALL (      15 calls)

     Called by c_bands:
     init_us_2    :     12.54s CPU     12.59s WALL (     217 calls)
     cegterg      :   3999.02s CPU   4031.35s WALL (     105 calls)

     Called by *egterg:
     cdiaghg      :     54.24s CPU     55.03s WALL (     416 calls)
     h_psi        :   2597.78s CPU   2613.39s WALL (     430 calls)
     s_psi        :    286.08s CPU    286.89s WALL (     430 calls)
     g_psi        :      6.29s CPU      6.30s WALL (     318 calls)

     Called by h_psi:
     h_psi:calbec :    267.59s CPU    267.90s WALL (     430 calls)
     vloc_psi     :   2037.39s CPU   2044.86s WALL (     430 calls)
     add_vuspsi   :    280.06s CPU    281.22s WALL (     430 calls)

     General routines
     calbec       :    378.65s CPU    379.09s WALL (     535 calls)
     fft          :      7.45s CPU      8.09s WALL (     320 calls)
     ffts         :     34.91s CPU     35.07s WALL (    6867 calls)
     fftw         :   1439.01s CPU   1444.68s WALL (  575540 calls)
     interpolate  :      1.79s CPU      1.81s WALL (      60 calls)
 
     Parallel routines
 
     PWSCF        :      1h32m CPU      1h34m WALL

 
   This run was terminated on:  19:57:46   8Nov2023            

=------------------------------------------------------------------------------=
   JOB DONE.
=------------------------------------------------------------------------------=
