 
             +---------------------------------------------------+
             |                                                   |
             |                   WANNIER90                       |
             |                                                   |
             +---------------------------------------------------+
             |                                                   |
             |        Welcome to the Maximally-Localized         |
             |        Generalized Wannier Functions code         |
             |            http://www.wannier.org                 |
             |                                                   |
             |                                                   |
             |  Wannier90 Developer Group:                       |
             |    Giovanni Pizzi    (EPFL)                       |
             |    Valerio Vitale    (Cambridge)                  |
             |    David Vanderbilt  (Rutgers University)         |
             |    Nicola Marzari    (EPFL)                       |
             |    Ivo Souza         (Universidad del Pais Vasco) |
             |    Arash A. Mostofi  (Imperial College London)    |
             |    Jonathan R. Yates (University of Oxford)       |
             |                                                   |
             |  For the full list of Wannier90 3.x authors,      |
             |  please check the code documentation and the      |
             |  README on the GitHub page of the code            |
             |                                                   |
             |                                                   |
             |  Please cite                                      |
             |                                                   |
             |  [ref] "Wannier90 as a community code:            |
             |        new features and applications",            |
             |        G. Pizzi et al., J. Phys. Cond. Matt. 32,  |
             |        165902 (2020).                             |
             |        http://doi.org/10.1088/1361-648X/ab51ff    |
             |                                                   |
             |  in any publications arising from the use of      |
             |  this code. For the method please cite            |
             |                                                   |
             |  [ref] "Maximally Localized Generalised Wannier   |
             |         Functions for Composite Energy Bands"     |
             |         N. Marzari and D. Vanderbilt              |
             |         Phys. Rev. B 56 12847 (1997)              |
             |                                                   |
             |  [ref] "Maximally Localized Wannier Functions     |
             |         for Entangled Energy Bands"               |
             |         I. Souza, N. Marzari and D. Vanderbilt    |
             |         Phys. Rev. B 65 035109 (2001)             |
             |                                                   |
             |                                                   |
             | Copyright (c) 1996-2020                           |
             |        The Wannier90 Developer Group and          |
             |        individual contributors                    |
             |                                                   |
             |      Release: 3.1.0        5th March    2020      |
             |                                                   |
             | This program is free software; you can            |
             | redistribute it and/or modify it under the terms  |
             | of the GNU General Public License as published by |
             | the Free Software Foundation; either version 2 of |
             | the License, or (at your option) any later version|
             |                                                   |
             | This program is distributed in the hope that it   |
             | will be useful, but WITHOUT ANY WARRANTY; without |
             | even the implied warranty of MERCHANTABILITY or   |
             | FITNESS FOR A PARTICULAR PURPOSE. See the GNU     |
             | General Public License for more details.          |
             |                                                   |
             | You should have received a copy of the GNU General|
             | Public License along with this program; if not,   |
             | write to the Free Software Foundation, Inc.,      |
             | 675 Mass Ave, Cambridge, MA 02139, USA.           |
             |                                                   |
             +---------------------------------------------------+
             |    Execution started on 12Jul2023 at 13:11:47     |
             +---------------------------------------------------+
 
 ******************************************************************************
 * -> Using CODATA 2006 constant values                                       *
 *    (http://physics.nist.gov/cuu/Constants/index.html)                      *
 * -> Using Bohr value from CODATA                                            *
 ******************************************************************************
 

 Running in parallel on 160 CPUs

 
                                    ------
                                    SYSTEM
                                    ------
 
                              Lattice Vectors (Ang)
                    a_1    13.784171   0.000000   0.000000
                    a_2    -6.892085  11.937442   0.000000
                    a_3     0.000000   0.000000  23.631430
 
                   Unit Cell Volume:    3888.49848  (Ang^3)
 
                        Reciprocal-Space Vectors (Ang^-1)
                    b_1     0.455826   0.263171   0.000000
                    b_2     0.000000   0.526343   0.000000
                    b_3     0.000000   0.000000   0.265883
  
 *----------------------------------------------------------------------------*
 |   Site       Fractional Coordinate          Cartesian Coordinate (Ang)     |
 +----------------------------------------------------------------------------+
 | Cr   1   0.75000   0.75000   0.19894   |    5.16906   8.95308   4.70129    |
 | Nb   1   0.00020   0.00578   0.07199   |   -0.03708   0.06902   1.70111    |
 | Nb   2   0.24938  -0.00031   0.07119   |    3.43968  -0.00367   1.68227    |
 | Nb   3   0.50031  -0.00031   0.07119   |    6.89845  -0.00367   1.68227    |
 | Nb   4   0.75558   0.00578   0.07199   |   10.37521   0.06902   1.70111    |
 | Nb   5   0.75523   0.25262   0.07109   |    8.66921   3.01560   1.67987    |
 | Nb   6   0.75558   0.49980   0.07199   |    6.97040   5.96632   1.70111    |
 | Nb   7   0.75000   0.75000   0.07307   |    5.16906   8.95308   1.72677    |
 | Nb   8   0.49422   0.74442   0.07199   |    1.68179   8.88646   1.70111    |
 | Nb   9   0.24738   0.74477   0.07109   |   -1.72302   8.89061   1.67987    |
 | Nb  10   0.00020   0.74442   0.07199   |   -5.12783   8.88646   1.70111    |
 | Nb  11   0.50031   0.25062   0.07119   |    5.16906   2.99171   1.68227    |
 | Nb  12   0.49422   0.49980   0.07199   |    3.36773   5.96632   1.70111    |
 | Nb  13   0.24882   0.49941   0.07138   |   -0.01216   5.96170   1.68685    |
 | Nb  14   0.24738   0.25262   0.07109   |    1.66892   3.01560   1.67987    |
 | Nb  15   0.00059   0.25118   0.07138   |   -1.72302   2.99840   1.68685    |
 | Nb  16   0.00059   0.49941   0.07138   |   -3.43388   5.96170   1.68685    |
 | Se   1   0.16663   0.08376   0.00021   |    1.71959   0.99984   0.00504    |
 | Se   2   0.16836   0.08524   0.14254   |    1.73320   1.01750   3.36834    |
 | Se   3   0.41667   0.08333  -0.00020   |    5.16906   0.99479  -0.00467    |
 | Se   4   0.41667   0.08333   0.14264   |    5.16906   0.99479   3.37083    |
 | Se   5   0.66713   0.08376   0.00021   |    8.61853   0.99984   0.00504    |
 | Se   6   0.66688   0.08524   0.14254   |    8.60493   1.01750   3.36834    |
 | Se   7   0.91724   0.08448  -0.00089   |   12.06115   1.00843  -0.02099    |
 | Se   8   0.91814   0.08629   0.14466   |   12.06115   1.03006   3.41854    |
 | Se   9   0.91800   0.33400  -0.00103   |   10.35193   3.98712  -0.02439    |
 | Se  10   0.91783   0.33391   0.14361   |   10.35012   3.98607   3.39372    |
 | Se  11   0.91724   0.58276  -0.00089   |    8.62693   6.95668  -0.02099    |
 | Se  12   0.91814   0.58186   0.14466   |    8.64566   6.94587   3.41854    |
 | Se  13   0.91786   0.83393   0.00330   |    6.90441   9.95498   0.07806    |
 | Se  14   0.92475   0.83738   0.14404   |    6.97568   9.99613   3.40392    |
 | Se  15   0.66607   0.83393   0.00330   |    3.43372   9.95498   0.07806    |
 | Se  16   0.66262   0.83738   0.14404   |    3.36245   9.99613   3.40392    |
 | Se  17   0.41624   0.83287   0.00021   |   -0.00266   9.94238   0.00504    |
 | Se  18   0.41476   0.83312   0.14254   |   -0.02476   9.94533   3.36834    |
 | Se  19   0.16663   0.83287   0.00021   |   -3.44338   9.94238   0.00504    |
 | Se  20   0.16836   0.83312   0.14254   |   -3.42128   9.94533   3.36834    |
 | Se  21   0.66713   0.33337   0.00021   |    6.89817   3.97959   0.00504    |
 | Se  22   0.66688   0.33164   0.14254   |    6.90666   3.95898   3.36834    |
 | Se  23   0.66607   0.58214   0.00330   |    5.16906   6.94928   0.07806    |
 | Se  24   0.66262   0.57525   0.14404   |    5.16906   6.86698   3.40392    |
 | Se  25   0.41552   0.58276  -0.00089   |    1.71120   6.95668  -0.02099    |
 | Se  26   0.41371   0.58186   0.14466   |    1.69247   6.94587   3.41854    |
 | Se  27   0.41624   0.33337   0.00021   |    3.43996   3.97959   0.00504    |
 | Se  28   0.41476   0.33164   0.14254   |    3.43146   3.95898   3.36834    |
 | Se  29   0.16600   0.33400  -0.00103   |   -0.01380   3.98712  -0.02439    |
 | Se  30   0.16609   0.33391   0.14361   |   -0.01199   3.98607   3.39372    |
 | Se  31   0.16600   0.58200  -0.00103   |   -1.72302   6.94757  -0.02439    |
 | Se  32   0.16609   0.58217   0.14361   |   -1.72302   6.94966   3.39372    |
 *----------------------------------------------------------------------------*
                                -----------
                                PROJECTIONS
                                -----------
  
 +----------------------------------------------------------------------------+
 |     Frac. Coord.   l mr  r        z-axis               x-axis          Z/a |
 +----------------------------------------------------------------------------+
 |  0.75  0.75  0.20  2  1  1  0.000  0.000  1.000  1.000  0.000  0.000   1.0 |
 |  0.75  0.75  0.20  2  2  1  0.000  0.000  1.000  1.000  0.000  0.000   1.0 |
 |  0.75  0.75  0.20  2  3  1  0.000  0.000  1.000  1.000  0.000  0.000   1.0 |
 |  0.75  0.75  0.20  2  4  1  0.000  0.000  1.000  1.000  0.000  0.000   1.0 |
 |  0.75  0.75  0.20  2  5  1  0.000  0.000  1.000  1.000  0.000  0.000   1.0 |
 |  0.00  0.01  0.07  2  1  1  0.000  0.000  1.000  1.000  0.000  0.000   1.0 |
 |  0.00  0.01  0.07  2  2  1  0.000  0.000  1.000  1.000  0.000  0.000   1.0 |
 |  0.00  0.01  0.07  2  3  1  0.000  0.000  1.000  1.000  0.000  0.000   1.0 |
 |  0.00  0.01  0.07  2  4  1  0.000  0.000  1.000  1.000  0.000  0.000   1.0 |
 |  0.00  0.01  0.07  2  5  1  0.000  0.000  1.000  1.000  0.000  0.000   1.0 |
 |  0.25 -0.00  0.07  2  1  1  0.000  0.000  1.000  1.000  0.000  0.000   1.0 |
 |  0.25 -0.00  0.07  2  2  1  0.000  0.000  1.000  1.000  0.000  0.000   1.0 |
 |  0.25 -0.00  0.07  2  3  1  0.000  0.000  1.000  1.000  0.000  0.000   1.0 |
 |  0.25 -0.00  0.07  2  4  1  0.000  0.000  1.000  1.000  0.000  0.000   1.0 |
 |  0.25 -0.00  0.07  2  5  1  0.000  0.000  1.000  1.000  0.000  0.000   1.0 |
 |  0.50 -0.00  0.07  2  1  1  0.000  0.000  1.000  1.000  0.000  0.000   1.0 |
 |  0.50 -0.00  0.07  2  2  1  0.000  0.000  1.000  1.000  0.000  0.000   1.0 |
 |  0.50 -0.00  0.07  2  3  1  0.000  0.000  1.000  1.000  0.000  0.000   1.0 |
 |  0.50 -0.00  0.07  2  4  1  0.000  0.000  1.000  1.000  0.000  0.000   1.0 |
 |  0.50 -0.00  0.07  2  5  1  0.000  0.000  1.000  1.000  0.000  0.000   1.0 |
 |  0.76  0.01  0.07  2  1  1  0.000  0.000  1.000  1.000  0.000  0.000   1.0 |
 |  0.76  0.01  0.07  2  2  1  0.000  0.000  1.000  1.000  0.000  0.000   1.0 |
 |  0.76  0.01  0.07  2  3  1  0.000  0.000  1.000  1.000  0.000  0.000   1.0 |
 |  0.76  0.01  0.07  2  4  1  0.000  0.000  1.000  1.000  0.000  0.000   1.0 |
 |  0.76  0.01  0.07  2  5  1  0.000  0.000  1.000  1.000  0.000  0.000   1.0 |
 |  0.76  0.25  0.07  2  1  1  0.000  0.000  1.000  1.000  0.000  0.000   1.0 |
 |  0.76  0.25  0.07  2  2  1  0.000  0.000  1.000  1.000  0.000  0.000   1.0 |
 |  0.76  0.25  0.07  2  3  1  0.000  0.000  1.000  1.000  0.000  0.000   1.0 |
 |  0.76  0.25  0.07  2  4  1  0.000  0.000  1.000  1.000  0.000  0.000   1.0 |
 |  0.76  0.25  0.07  2  5  1  0.000  0.000  1.000  1.000  0.000  0.000   1.0 |
 |  0.76  0.50  0.07  2  1  1  0.000  0.000  1.000  1.000  0.000  0.000   1.0 |
 |  0.76  0.50  0.07  2  2  1  0.000  0.000  1.000  1.000  0.000  0.000   1.0 |
 |  0.76  0.50  0.07  2  3  1  0.000  0.000  1.000  1.000  0.000  0.000   1.0 |
 |  0.76  0.50  0.07  2  4  1  0.000  0.000  1.000  1.000  0.000  0.000   1.0 |
 |  0.76  0.50  0.07  2  5  1  0.000  0.000  1.000  1.000  0.000  0.000   1.0 |
 |  0.75  0.75  0.07  2  1  1  0.000  0.000  1.000  1.000  0.000  0.000   1.0 |
 |  0.75  0.75  0.07  2  2  1  0.000  0.000  1.000  1.000  0.000  0.000   1.0 |
 |  0.75  0.75  0.07  2  3  1  0.000  0.000  1.000  1.000  0.000  0.000   1.0 |
 |  0.75  0.75  0.07  2  4  1  0.000  0.000  1.000  1.000  0.000  0.000   1.0 |
 |  0.75  0.75  0.07  2  5  1  0.000  0.000  1.000  1.000  0.000  0.000   1.0 |
 |  0.49  0.74  0.07  2  1  1  0.000  0.000  1.000  1.000  0.000  0.000   1.0 |
 |  0.49  0.74  0.07  2  2  1  0.000  0.000  1.000  1.000  0.000  0.000   1.0 |
 |  0.49  0.74  0.07  2  3  1  0.000  0.000  1.000  1.000  0.000  0.000   1.0 |
 |  0.49  0.74  0.07  2  4  1  0.000  0.000  1.000  1.000  0.000  0.000   1.0 |
 |  0.49  0.74  0.07  2  5  1  0.000  0.000  1.000  1.000  0.000  0.000   1.0 |
 |  0.25  0.74  0.07  2  1  1  0.000  0.000  1.000  1.000  0.000  0.000   1.0 |
 |  0.25  0.74  0.07  2  2  1  0.000  0.000  1.000  1.000  0.000  0.000   1.0 |
 |  0.25  0.74  0.07  2  3  1  0.000  0.000  1.000  1.000  0.000  0.000   1.0 |
 |  0.25  0.74  0.07  2  4  1  0.000  0.000  1.000  1.000  0.000  0.000   1.0 |
 |  0.25  0.74  0.07  2  5  1  0.000  0.000  1.000  1.000  0.000  0.000   1.0 |
 |  0.00  0.74  0.07  2  1  1  0.000  0.000  1.000  1.000  0.000  0.000   1.0 |
 |  0.00  0.74  0.07  2  2  1  0.000  0.000  1.000  1.000  0.000  0.000   1.0 |
 |  0.00  0.74  0.07  2  3  1  0.000  0.000  1.000  1.000  0.000  0.000   1.0 |
 |  0.00  0.74  0.07  2  4  1  0.000  0.000  1.000  1.000  0.000  0.000   1.0 |
 |  0.00  0.74  0.07  2  5  1  0.000  0.000  1.000  1.000  0.000  0.000   1.0 |
 |  0.50  0.25  0.07  2  1  1  0.000  0.000  1.000  1.000  0.000  0.000   1.0 |
 |  0.50  0.25  0.07  2  2  1  0.000  0.000  1.000  1.000  0.000  0.000   1.0 |
 |  0.50  0.25  0.07  2  3  1  0.000  0.000  1.000  1.000  0.000  0.000   1.0 |
 |  0.50  0.25  0.07  2  4  1  0.000  0.000  1.000  1.000  0.000  0.000   1.0 |
 |  0.50  0.25  0.07  2  5  1  0.000  0.000  1.000  1.000  0.000  0.000   1.0 |
 |  0.49  0.50  0.07  2  1  1  0.000  0.000  1.000  1.000  0.000  0.000   1.0 |
 |  0.49  0.50  0.07  2  2  1  0.000  0.000  1.000  1.000  0.000  0.000   1.0 |
 |  0.49  0.50  0.07  2  3  1  0.000  0.000  1.000  1.000  0.000  0.000   1.0 |
 |  0.49  0.50  0.07  2  4  1  0.000  0.000  1.000  1.000  0.000  0.000   1.0 |
 |  0.49  0.50  0.07  2  5  1  0.000  0.000  1.000  1.000  0.000  0.000   1.0 |
 |  0.25  0.50  0.07  2  1  1  0.000  0.000  1.000  1.000  0.000  0.000   1.0 |
 |  0.25  0.50  0.07  2  2  1  0.000  0.000  1.000  1.000  0.000  0.000   1.0 |
 |  0.25  0.50  0.07  2  3  1  0.000  0.000  1.000  1.000  0.000  0.000   1.0 |
 |  0.25  0.50  0.07  2  4  1  0.000  0.000  1.000  1.000  0.000  0.000   1.0 |
 |  0.25  0.50  0.07  2  5  1  0.000  0.000  1.000  1.000  0.000  0.000   1.0 |
 |  0.25  0.25  0.07  2  1  1  0.000  0.000  1.000  1.000  0.000  0.000   1.0 |
 |  0.25  0.25  0.07  2  2  1  0.000  0.000  1.000  1.000  0.000  0.000   1.0 |
 |  0.25  0.25  0.07  2  3  1  0.000  0.000  1.000  1.000  0.000  0.000   1.0 |
 |  0.25  0.25  0.07  2  4  1  0.000  0.000  1.000  1.000  0.000  0.000   1.0 |
 |  0.25  0.25  0.07  2  5  1  0.000  0.000  1.000  1.000  0.000  0.000   1.0 |
 |  0.00  0.25  0.07  2  1  1  0.000  0.000  1.000  1.000  0.000  0.000   1.0 |
 |  0.00  0.25  0.07  2  2  1  0.000  0.000  1.000  1.000  0.000  0.000   1.0 |
 |  0.00  0.25  0.07  2  3  1  0.000  0.000  1.000  1.000  0.000  0.000   1.0 |
 |  0.00  0.25  0.07  2  4  1  0.000  0.000  1.000  1.000  0.000  0.000   1.0 |
 |  0.00  0.25  0.07  2  5  1  0.000  0.000  1.000  1.000  0.000  0.000   1.0 |
 |  0.00  0.50  0.07  2  1  1  0.000  0.000  1.000  1.000  0.000  0.000   1.0 |
 |  0.00  0.50  0.07  2  2  1  0.000  0.000  1.000  1.000  0.000  0.000   1.0 |
 |  0.00  0.50  0.07  2  3  1  0.000  0.000  1.000  1.000  0.000  0.000   1.0 |
 |  0.00  0.50  0.07  2  4  1  0.000  0.000  1.000  1.000  0.000  0.000   1.0 |
 |  0.00  0.50  0.07  2  5  1  0.000  0.000  1.000  1.000  0.000  0.000   1.0 |
 |  0.17  0.08  0.00  1  1  1  0.000  0.000  1.000  1.000  0.000  0.000   1.0 |
 |  0.17  0.08  0.00  1  2  1  0.000  0.000  1.000  1.000  0.000  0.000   1.0 |
 |  0.17  0.08  0.00  1  3  1  0.000  0.000  1.000  1.000  0.000  0.000   1.0 |
 |  0.17  0.09  0.14  1  1  1  0.000  0.000  1.000  1.000  0.000  0.000   1.0 |
 |  0.17  0.09  0.14  1  2  1  0.000  0.000  1.000  1.000  0.000  0.000   1.0 |
 |  0.17  0.09  0.14  1  3  1  0.000  0.000  1.000  1.000  0.000  0.000   1.0 |
 |  0.42  0.08 -0.00  1  1  1  0.000  0.000  1.000  1.000  0.000  0.000   1.0 |
 |  0.42  0.08 -0.00  1  2  1  0.000  0.000  1.000  1.000  0.000  0.000   1.0 |
 |  0.42  0.08 -0.00  1  3  1  0.000  0.000  1.000  1.000  0.000  0.000   1.0 |
 |  0.42  0.08  0.14  1  1  1  0.000  0.000  1.000  1.000  0.000  0.000   1.0 |
 |  0.42  0.08  0.14  1  2  1  0.000  0.000  1.000  1.000  0.000  0.000   1.0 |
 |  0.42  0.08  0.14  1  3  1  0.000  0.000  1.000  1.000  0.000  0.000   1.0 |
 |  0.67  0.08  0.00  1  1  1  0.000  0.000  1.000  1.000  0.000  0.000   1.0 |
 |  0.67  0.08  0.00  1  2  1  0.000  0.000  1.000  1.000  0.000  0.000   1.0 |
 |  0.67  0.08  0.00  1  3  1  0.000  0.000  1.000  1.000  0.000  0.000   1.0 |
 |  0.67  0.09  0.14  1  1  1  0.000  0.000  1.000  1.000  0.000  0.000   1.0 |
 |  0.67  0.09  0.14  1  2  1  0.000  0.000  1.000  1.000  0.000  0.000   1.0 |
 |  0.67  0.09  0.14  1  3  1  0.000  0.000  1.000  1.000  0.000  0.000   1.0 |
 |  0.92  0.08 -0.00  1  1  1  0.000  0.000  1.000  1.000  0.000  0.000   1.0 |
 |  0.92  0.08 -0.00  1  2  1  0.000  0.000  1.000  1.000  0.000  0.000   1.0 |
 |  0.92  0.08 -0.00  1  3  1  0.000  0.000  1.000  1.000  0.000  0.000   1.0 |
 |  0.92  0.09  0.14  1  1  1  0.000  0.000  1.000  1.000  0.000  0.000   1.0 |
 |  0.92  0.09  0.14  1  2  1  0.000  0.000  1.000  1.000  0.000  0.000   1.0 |
 |  0.92  0.09  0.14  1  3  1  0.000  0.000  1.000  1.000  0.000  0.000   1.0 |
 |  0.92  0.33 -0.00  1  1  1  0.000  0.000  1.000  1.000  0.000  0.000   1.0 |
 |  0.92  0.33 -0.00  1  2  1  0.000  0.000  1.000  1.000  0.000  0.000   1.0 |
 |  0.92  0.33 -0.00  1  3  1  0.000  0.000  1.000  1.000  0.000  0.000   1.0 |
 |  0.92  0.33  0.14  1  1  1  0.000  0.000  1.000  1.000  0.000  0.000   1.0 |
 |  0.92  0.33  0.14  1  2  1  0.000  0.000  1.000  1.000  0.000  0.000   1.0 |
 |  0.92  0.33  0.14  1  3  1  0.000  0.000  1.000  1.000  0.000  0.000   1.0 |
 |  0.92  0.58 -0.00  1  1  1  0.000  0.000  1.000  1.000  0.000  0.000   1.0 |
 |  0.92  0.58 -0.00  1  2  1  0.000  0.000  1.000  1.000  0.000  0.000   1.0 |
 |  0.92  0.58 -0.00  1  3  1  0.000  0.000  1.000  1.000  0.000  0.000   1.0 |
 |  0.92  0.58  0.14  1  1  1  0.000  0.000  1.000  1.000  0.000  0.000   1.0 |
 |  0.92  0.58  0.14  1  2  1  0.000  0.000  1.000  1.000  0.000  0.000   1.0 |
 |  0.92  0.58  0.14  1  3  1  0.000  0.000  1.000  1.000  0.000  0.000   1.0 |
 |  0.92  0.83  0.00  1  1  1  0.000  0.000  1.000  1.000  0.000  0.000   1.0 |
 |  0.92  0.83  0.00  1  2  1  0.000  0.000  1.000  1.000  0.000  0.000   1.0 |
 |  0.92  0.83  0.00  1  3  1  0.000  0.000  1.000  1.000  0.000  0.000   1.0 |
 |  0.92  0.84  0.14  1  1  1  0.000  0.000  1.000  1.000  0.000  0.000   1.0 |
 |  0.92  0.84  0.14  1  2  1  0.000  0.000  1.000  1.000  0.000  0.000   1.0 |
 |  0.92  0.84  0.14  1  3  1  0.000  0.000  1.000  1.000  0.000  0.000   1.0 |
 |  0.67  0.83  0.00  1  1  1  0.000  0.000  1.000  1.000  0.000  0.000   1.0 |
 |  0.67  0.83  0.00  1  2  1  0.000  0.000  1.000  1.000  0.000  0.000   1.0 |
 |  0.67  0.83  0.00  1  3  1  0.000  0.000  1.000  1.000  0.000  0.000   1.0 |
 |  0.66  0.84  0.14  1  1  1  0.000  0.000  1.000  1.000  0.000  0.000   1.0 |
 |  0.66  0.84  0.14  1  2  1  0.000  0.000  1.000  1.000  0.000  0.000   1.0 |
 |  0.66  0.84  0.14  1  3  1  0.000  0.000  1.000  1.000  0.000  0.000   1.0 |
 |  0.42  0.83  0.00  1  1  1  0.000  0.000  1.000  1.000  0.000  0.000   1.0 |
 |  0.42  0.83  0.00  1  2  1  0.000  0.000  1.000  1.000  0.000  0.000   1.0 |
 |  0.42  0.83  0.00  1  3  1  0.000  0.000  1.000  1.000  0.000  0.000   1.0 |
 |  0.41  0.83  0.14  1  1  1  0.000  0.000  1.000  1.000  0.000  0.000   1.0 |
 |  0.41  0.83  0.14  1  2  1  0.000  0.000  1.000  1.000  0.000  0.000   1.0 |
 |  0.41  0.83  0.14  1  3  1  0.000  0.000  1.000  1.000  0.000  0.000   1.0 |
 |  0.17  0.83  0.00  1  1  1  0.000  0.000  1.000  1.000  0.000  0.000   1.0 |
 |  0.17  0.83  0.00  1  2  1  0.000  0.000  1.000  1.000  0.000  0.000   1.0 |
 |  0.17  0.83  0.00  1  3  1  0.000  0.000  1.000  1.000  0.000  0.000   1.0 |
 |  0.17  0.83  0.14  1  1  1  0.000  0.000  1.000  1.000  0.000  0.000   1.0 |
 |  0.17  0.83  0.14  1  2  1  0.000  0.000  1.000  1.000  0.000  0.000   1.0 |
 |  0.17  0.83  0.14  1  3  1  0.000  0.000  1.000  1.000  0.000  0.000   1.0 |
 |  0.67  0.33  0.00  1  1  1  0.000  0.000  1.000  1.000  0.000  0.000   1.0 |
 |  0.67  0.33  0.00  1  2  1  0.000  0.000  1.000  1.000  0.000  0.000   1.0 |
 |  0.67  0.33  0.00  1  3  1  0.000  0.000  1.000  1.000  0.000  0.000   1.0 |
 |  0.67  0.33  0.14  1  1  1  0.000  0.000  1.000  1.000  0.000  0.000   1.0 |
 |  0.67  0.33  0.14  1  2  1  0.000  0.000  1.000  1.000  0.000  0.000   1.0 |
 |  0.67  0.33  0.14  1  3  1  0.000  0.000  1.000  1.000  0.000  0.000   1.0 |
 |  0.67  0.58  0.00  1  1  1  0.000  0.000  1.000  1.000  0.000  0.000   1.0 |
 |  0.67  0.58  0.00  1  2  1  0.000  0.000  1.000  1.000  0.000  0.000   1.0 |
 |  0.67  0.58  0.00  1  3  1  0.000  0.000  1.000  1.000  0.000  0.000   1.0 |
 |  0.66  0.58  0.14  1  1  1  0.000  0.000  1.000  1.000  0.000  0.000   1.0 |
 |  0.66  0.58  0.14  1  2  1  0.000  0.000  1.000  1.000  0.000  0.000   1.0 |
 |  0.66  0.58  0.14  1  3  1  0.000  0.000  1.000  1.000  0.000  0.000   1.0 |
 |  0.42  0.58 -0.00  1  1  1  0.000  0.000  1.000  1.000  0.000  0.000   1.0 |
 |  0.42  0.58 -0.00  1  2  1  0.000  0.000  1.000  1.000  0.000  0.000   1.0 |
 |  0.42  0.58 -0.00  1  3  1  0.000  0.000  1.000  1.000  0.000  0.000   1.0 |
 |  0.41  0.58  0.14  1  1  1  0.000  0.000  1.000  1.000  0.000  0.000   1.0 |
 |  0.41  0.58  0.14  1  2  1  0.000  0.000  1.000  1.000  0.000  0.000   1.0 |
 |  0.41  0.58  0.14  1  3  1  0.000  0.000  1.000  1.000  0.000  0.000   1.0 |
 |  0.42  0.33  0.00  1  1  1  0.000  0.000  1.000  1.000  0.000  0.000   1.0 |
 |  0.42  0.33  0.00  1  2  1  0.000  0.000  1.000  1.000  0.000  0.000   1.0 |
 |  0.42  0.33  0.00  1  3  1  0.000  0.000  1.000  1.000  0.000  0.000   1.0 |
 |  0.41  0.33  0.14  1  1  1  0.000  0.000  1.000  1.000  0.000  0.000   1.0 |
 |  0.41  0.33  0.14  1  2  1  0.000  0.000  1.000  1.000  0.000  0.000   1.0 |
 |  0.41  0.33  0.14  1  3  1  0.000  0.000  1.000  1.000  0.000  0.000   1.0 |
 |  0.17  0.33 -0.00  1  1  1  0.000  0.000  1.000  1.000  0.000  0.000   1.0 |
 |  0.17  0.33 -0.00  1  2  1  0.000  0.000  1.000  1.000  0.000  0.000   1.0 |
 |  0.17  0.33 -0.00  1  3  1  0.000  0.000  1.000  1.000  0.000  0.000   1.0 |
 |  0.17  0.33  0.14  1  1  1  0.000  0.000  1.000  1.000  0.000  0.000   1.0 |
 |  0.17  0.33  0.14  1  2  1  0.000  0.000  1.000  1.000  0.000  0.000   1.0 |
 |  0.17  0.33  0.14  1  3  1  0.000  0.000  1.000  1.000  0.000  0.000   1.0 |
 |  0.17  0.58 -0.00  1  1  1  0.000  0.000  1.000  1.000  0.000  0.000   1.0 |
 |  0.17  0.58 -0.00  1  2  1  0.000  0.000  1.000  1.000  0.000  0.000   1.0 |
 |  0.17  0.58 -0.00  1  3  1  0.000  0.000  1.000  1.000  0.000  0.000   1.0 |
 |  0.17  0.58  0.14  1  1  1  0.000  0.000  1.000  1.000  0.000  0.000   1.0 |
 |  0.17  0.58  0.14  1  2  1  0.000  0.000  1.000  1.000  0.000  0.000   1.0 |
 |  0.17  0.58  0.14  1  3  1  0.000  0.000  1.000  1.000  0.000  0.000   1.0 |
 +----------------------------------------------------------------------------+
  
                                ------------
                                K-POINT GRID
                                ------------
  
             Grid size =  4 x  4 x  1      Total points =   16
  
 *----------------------------------------------------------------------------*
 | k-point      Fractional Coordinate        Cartesian Coordinate (Ang^-1)    |
 +----------------------------------------------------------------------------+
 |     1    0.00000   0.00000   0.00000   |    0.00000   0.00000   0.00000    |
 |     2    0.00000   0.25000   0.00000   |    0.00000   0.13159   0.00000    |
 |     3    0.00000   0.50000   0.00000   |    0.00000   0.26317   0.00000    |
 |     4    0.00000   0.75000   0.00000   |    0.00000   0.39476   0.00000    |
 |     5    0.25000   0.00000   0.00000   |    0.11396   0.06579   0.00000    |
 |     6    0.25000   0.25000   0.00000   |    0.11396   0.19738   0.00000    |
 |     7    0.25000   0.50000   0.00000   |    0.11396   0.32896   0.00000    |
 |     8    0.25000   0.75000   0.00000   |    0.11396   0.46055   0.00000    |
 |     9    0.50000   0.00000   0.00000   |    0.22791   0.13159   0.00000    |
 |    10    0.50000   0.25000   0.00000   |    0.22791   0.26317   0.00000    |
 |    11    0.50000   0.50000   0.00000   |    0.22791   0.39476   0.00000    |
 |    12    0.50000   0.75000   0.00000   |    0.22791   0.52634   0.00000    |
 |    13    0.75000   0.00000   0.00000   |    0.34187   0.19738   0.00000    |
 |    14    0.75000   0.25000   0.00000   |    0.34187   0.32896   0.00000    |
 |    15    0.75000   0.50000   0.00000   |    0.34187   0.46055   0.00000    |
 |    16    0.75000   0.75000   0.00000   |    0.34187   0.59214   0.00000    |
 *----------------------------------------------------------------------------*
  
  
 *---------------------------------- MAIN ------------------------------------*
 |  Number of Wannier Functions               :               181             |
 |  Number of Objective Wannier Functions     :               181             |
 |  Number of input Bloch states              :               450             |
 |  Output verbosity (1=low, 5=high)          :                 3             |
 |  Timing Level (1=low, 5=high)              :                 1             |
 |  Optimisation (0=memory, 3=speed)          :                 3             |
 |  Length Unit                               :               Ang             |
 |  Post-processing setup (write *.nnkp)      :                 F             |
 |  Using Gamma-only branch of algorithms     :                 F             |
 |  CP code post-processing                   :                 F             |
 |  Wavefunction (UNK) file-type              :       unformatted             |
 |  Wavefunction spin channel                 :                up             |
 *----------------------------------------------------------------------------*
 *------------------------------- WANNIERISE ---------------------------------*
 |  Total number of iterations                :               500             |
 |  Number of CG steps before reset           :                 5             |
 |  Trial step length for line search         :             2.000             |
 |  Convergence tolerence                     :         0.100E-09             |
 |  Convergence window                        :                -1             |
 |  Iterations between writing output         :                50             |
 |  Iterations between backing up to disk     :               100             |
 |  Write r^2_nm to file                      :                 F             |
 |  Write xyz WF centres to file              :                 T             |
 |  Write on-site energies <0n|H|0n> to file  :                 F             |
 |  Use guiding centre to control phases      :                 T             |
 |  Use phases for initial projections        :                 F             |
 |  Iterations before starting guiding centres:                 0             |
 |  Iterations between using guiding centres  :                 1             |
 |  Perform selective localization            :                 F             |
 |  Use constrains in selective localization  :                 F             |
 |  Value of the Lagrange multiplier          :         0.100E+01             |
 *----------------------------------------------------------------------------*
 *------------------------------- DISENTANGLE --------------------------------*
 |  Using band disentanglement                :                 T             |
 |  Total number of iterations                :              4000             |
 |  Mixing ratio                              :             0.500             |
 |  Convergence tolerence                     :         1.000E-10             |
 |  Convergence window                        :                 3             |
 *----------------------------------------------------------------------------*
 *-------------------------------- PLOTTING ----------------------------------*
 |  Plotting Wannier functions                :                 F             |
 |   Size of supercell for plotting           :     2x    2x    2             |
 |   Plotting mode (molecule or crystal)      :           crystal             |
 |   Plotting format                          :          xcrysden             |
 |   Plot radius                              :             3.500             |
 |   Plot scale                               :             1.000             |
 *----------------------------------------------------------------------------*
 |  Plotting Fermi surface                    :                 F             |
 |   Number of plotting points (along b_1)    :                50             |
 |   Plotting format                          :          xcrysden             |
 *----------------------------------------------------------------------------*
 |  Plotting interpolated bandstructure       :                 T             |
 |   Number of K-path sections                :                 3             |
 |   Divisions along first K-path section     :               100             |
 |   Output format                            :           gnuplot             |
 |   Output mode                              :               s-k             |
 *----------------------------------------------------------------------------*
 |   K-space path sections:                                                   |
 |    From: Γ      0.000  0.000  0.000     To: M       0.500  0.000  0.000   |
 |    From: M       0.500  0.000  0.000     To: K       0.333  0.333  0.000   |
 |    From: K       0.333  0.333  0.000     To: Γ      0.000  0.000  0.000   |
 *----------------------------------------------------------------------------*
 |  Plotting Hamiltonian in WF basis          :                 T             |
 *----------------------------------------------------------------------------*
 |  Writing data for Van der Waals post-proc  :                 F             |
 *----------------------------------------------------------------------------*
 *------------------------------- TRANSPORT ----------------------------------*
 |  Transport mode                            :              bulk             |
 |   Hamiltonian from external files          :                 F             |
 |   System extended in                       :              none             |
 |   Centre of the unit cell to which WF are translated (fract. coords):      |
 |                                       0.000000,    0.000000,    0.000000   |
 |  Fermi energy (eV)                         :             0.000             |
 *----------------------------------------------------------------------------*
 Time to read parameters        0.043 (sec)

 *---------------------------------- K-MESH ----------------------------------*
 +----------------------------------------------------------------------------+
 |                    Distance to Nearest-Neighbour Shells                    |
 |                    ------------------------------------                    |
 |          Shell             Distance (Ang^-1)          Multiplicity         |
 |          -----             -----------------          ------------         |
 |             1                   0.131586                      6            |
 |             2                   0.227913                      6            |
 |             3                   0.263171                      6            |
 |             4                   0.265883                      2            |
 |             5                   0.296662                     12            |
 |             6                   0.348143                     12            |
 |             7                   0.350197                     12            |
 |             8                   0.374103                     12            |
 |             9                   0.394757                      6            |
 |            10                   0.438061                     24            |
 |            11                   0.455826                      6            |
 |            12                   0.474439                     12            |
 |            13                   0.475948                     12            |
 |            14                   0.526343                      6            |
 |            15                   0.527704                     12            |
 |            16                   0.531765                      2            |
 |            17                   0.543862                     24            |
 |            18                   0.547804                     12            |
 |            19                   0.573569                     12            |
 |            20                   0.578549                     12            |
 |            21                   0.589686                     12            |
 |            22                   0.593324                     12            |
 |            23                   0.603001                     12            |
 |            24                   0.632198                     24            |
 |            25                   0.635592                     24            |
 |            26                   0.657928                      6            |
 |            27                   0.659018                     24            |
 |            28                   0.662274                     12            |
 |            29                   0.683739                      6            |
 |            30                   0.696286                     12            |
 |            31                   0.700394                     12            |
 |            32                   0.709622                     12            |
 |            33                   0.712647                     24            |
 |            34                   0.732638                     12            |
 |            35                   0.733616                     12            |
 |            36                   0.745324                     24            |
 +----------------------------------------------------------------------------+
 | The b-vectors are chosen automatically                                     |
 | Shell:  1 Multiplicity:  6                                                 |
 | b-vector 1 :        0.000000    0.131586    0.000000      (Ang^-1)         |
 | b-vector 2 :        0.113957    0.065793    0.000000      (Ang^-1)         |
 | b-vector 3 :        0.000000   -0.131586    0.000000      (Ang^-1)         |
 | b-vector 4 :        0.113957   -0.065793    0.000000      (Ang^-1)         |
 | b-vector 5 :       -0.113957   -0.065793    0.000000      (Ang^-1)         |
 | b-vector 6 :       -0.113957    0.065793    0.000000      (Ang^-1)         |
 | Shell:  1 w_b   19.2513662      (Ang^2)                                    |
 | B1 condition is not satisfied: Adding another shell                        |
 | Shell:  2 Multiplicity:  6                                                 |
 | b-vector 1 :        0.113957    0.197379    0.000000      (Ang^-1)         |
 | b-vector 2 :        0.113957   -0.197379    0.000000      (Ang^-1)         |
 | b-vector 3 :        0.227913   -0.000000    0.000000      (Ang^-1)         |
 | b-vector 4 :       -0.227913    0.000000    0.000000      (Ang^-1)         |
 | b-vector 5 :       -0.113957    0.197379    0.000000      (Ang^-1)         |
 | b-vector 6 :       -0.113957   -0.197379    0.000000      (Ang^-1)         |
 | SVD found small singular value, Rejecting this shell and trying the next   |
 | Shell:  3 Multiplicity:  6                                                 |
 | b-vector 1 :        0.000000    0.263171    0.000000      (Ang^-1)         |
 | b-vector 2 :        0.227913    0.131586    0.000000      (Ang^-1)         |
 | b-vector 3 :        0.000000   -0.263171    0.000000      (Ang^-1)         |
 | b-vector 4 :        0.227913   -0.131586    0.000000      (Ang^-1)         |
 | b-vector 5 :       -0.227913   -0.131586    0.000000      (Ang^-1)         |
 | b-vector 6 :       -0.227913    0.131586    0.000000      (Ang^-1)         |
 | This shell is linearly dependent on existing shells: Trying next shell     |
 | Shell:  4 Multiplicity:  2                                                 |
 | b-vector 1 :        0.000000    0.000000    0.265883      (Ang^-1)         |
 | b-vector 2 :        0.000000    0.000000   -0.265883      (Ang^-1)         |
 | Shell:  1 w_b   19.2513662      (Ang^2)                                    |
 | Shell:  2 w_b    7.0727819      (Ang^2)                                    |
 | The following shells are used:   1,  4                                     |
 +----------------------------------------------------------------------------+
 |                        Shell   # Nearest-Neighbours                        |
 |                        -----   --------------------                        |
 |                          1               6                                 |
 |                          4               2                                 |
 +----------------------------------------------------------------------------+
 | Completeness relation is fully satisfied [Eq. (B1), PRB 56, 12847 (1997)]  |
 +----------------------------------------------------------------------------+
 |                  b_k Vectors (Ang^-1) and Weights (Ang^2)                  |
 |                  ----------------------------------------                  |
 |            No.         b_k(x)      b_k(y)      b_k(z)        w_b           |
 |            ---        --------------------------------     --------        |
 |             1         0.000000    0.131586    0.000000    19.251366        |
 |             2         0.113957    0.065793    0.000000    19.251366        |
 |             3         0.000000   -0.131586    0.000000    19.251366        |
 |             4         0.113957   -0.065793    0.000000    19.251366        |
 |             5        -0.113957   -0.065793    0.000000    19.251366        |
 |             6        -0.113957    0.065793    0.000000    19.251366        |
 |             7         0.000000    0.000000    0.265883     7.072782        |
 |             8         0.000000    0.000000   -0.265883     7.072782        |
 +----------------------------------------------------------------------------+
 |                           b_k Directions (Ang^-1)                          |
 |                           -----------------------                          |
 |            No.           x           y           z                         |
 |            ---        --------------------------------                     |
 |             1         0.000000    0.131586    0.000000                     |
 |             2         0.113957    0.065793    0.000000                     |
 |             3         0.113957   -0.065793    0.000000                     |
 |             4         0.000000    0.000000    0.265883                     |
 +----------------------------------------------------------------------------+
  
 Time to get kmesh              0.032 (sec)
 *============================================================================*
 |                              MEMORY ESTIMATE                               |
 |         Maximum RAM allocated during each phase of the calculation         |
 *============================================================================*
 |                        Disentanglement          550.06 Mb                  |
 |                            Wannierise:          183.41 Mb                  |
 |                                                                            |
 |   N.B. by setting optimisation=0 memory usage will be reduced to:          |
 |                        Disentanglement          550.06 Mb                  |
 |                            Wannierise:          119.42 Mb                  |
 |   However, this will result in more i/o and slow down the calculation      |
 |                          plot_wannier:          183.41 Mb                  |
 *----------------------------------------------------------------------------*
  
 Starting a new Wannier90 calculation ...


 Reading overlaps from 1Fe_Nbconf.up.mmn    :  Created on 11Jul2023 at 18:19:36

 Reading projections from 1Fe_Nbconf.up.amn :  Created on 11Jul2023 at 18: 1: 0

 Time to read overlaps         62.242 (sec)

 *------------------------------- DISENTANGLE --------------------------------*
 +----------------------------------------------------------------------------+
 |                              Energy  Windows                               |
 |                              ---------------                               |
 |                   Outer:  -30.00000  to   30.00000  (eV)                   |
 |                   Inner:   -6.00000  to    1.00000  (eV)                   |
 +----------------------------------------------------------------------------+
 |                        K-points with Frozen States                         |
 |                        ---------------------------                         |
 |     1     2     3     4     5     6     7     8     9    10    11    12    |
 |    13    14    15    16                                                    |
 +----------------------------------------------------------------------------+
   Number of target bands to extract:  181
 +----------------------------------------------------------------------------+
 |                                  Windows                                   |
 |                                  -------                                   |
 |               K-point      Ndimwin     Ndimfroz    Nfirstwin               |
 |               ----------------------------------------------               |
 |                   1          382          116          69                  |
 |                   2          382          117          69                  |
 |                   3          382          116          69                  |
 |                   4          382          117          69                  |
 |                   5          382          117          69                  |
 |                   6          382          117          69                  |
 |                   7          382          117          69                  |
 |                   8          382          117          69                  |
 |                   9          382          116          69                  |
 |                  10          382          117          69                  |
 |                  11          382          116          69                  |
 |                  12          382          117          69                  |
 |                  13          382          117          69                  |
 |                  14          382          117          69                  |
 |                  15          382          117          69                  |
 |                  16          382          117          69                  |
 +----------------------------------------------------------------------------+

                   Unitarised projection of Wannier functions                  
                   ------------------------------------------                  
   A_mn = <psi_m|g_n> --> S = A.A^+ --> U = S^-1/2.A
   In dis_project... done
   Using an inner window (linner = T)
   In dis_proj_froz...
 K-point   1 ndimwin: 382 we want the 65 leading eigenvector(s) of QPQ
  lambda(  1)= -0.000000000000
  lambda(  2)= -0.000000000000
  lambda(  3)= -0.000000000000
  lambda(  4)= -0.000000000000
  lambda(  5)= -0.000000000000
  lambda(  6)= -0.000000000000
  lambda(  7)= -0.000000000000
  lambda(  8)= -0.000000000000
  lambda(  9)= -0.000000000000
  lambda( 10)= -0.000000000000
  lambda( 11)= -0.000000000000
  lambda( 12)= -0.000000000000
  lambda( 13)= -0.000000000000
  lambda( 14)= -0.000000000000
  lambda( 15)= -0.000000000000
  lambda( 16)= -0.000000000000
  lambda( 17)= -0.000000000000
  lambda( 18)= -0.000000000000
  lambda( 19)= -0.000000000000
  lambda( 20)= -0.000000000000
  lambda( 21)= -0.000000000000
  lambda( 22)= -0.000000000000
  lambda( 23)= -0.000000000000
  lambda( 24)= -0.000000000000
  lambda( 25)= -0.000000000000
  lambda( 26)= -0.000000000000
  lambda( 27)= -0.000000000000
  lambda( 28)= -0.000000000000
  lambda( 29)= -0.000000000000
  lambda( 30)= -0.000000000000
  lambda( 31)= -0.000000000000
  lambda( 32)= -0.000000000000
  lambda( 33)= -0.000000000000
  lambda( 34)= -0.000000000000
  lambda( 35)= -0.000000000000
  lambda( 36)= -0.000000000000
  lambda( 37)= -0.000000000000
  lambda( 38)= -0.000000000000
  lambda( 39)= -0.000000000000
  lambda( 40)= -0.000000000000
  lambda( 41)= -0.000000000000
  lambda( 42)= -0.000000000000
  lambda( 43)= -0.000000000000
  lambda( 44)= -0.000000000000
  lambda( 45)= -0.000000000000
  lambda( 46)= -0.000000000000
  lambda( 47)= -0.000000000000
  lambda( 48)= -0.000000000000
  lambda( 49)= -0.000000000000
  lambda( 50)= -0.000000000000
  lambda( 51)= -0.000000000000
  lambda( 52)= -0.000000000000
  lambda( 53)= -0.000000000000
  lambda( 54)= -0.000000000000
  lambda( 55)= -0.000000000000
  lambda( 56)= -0.000000000000
  lambda( 57)= -0.000000000000
  lambda( 58)= -0.000000000000
  lambda( 59)= -0.000000000000
  lambda( 60)= -0.000000000000
  lambda( 61)= -0.000000000000
  lambda( 62)= -0.000000000000
  lambda( 63)= -0.000000000000
  lambda( 64)= -0.000000000000
  lambda( 65)= -0.000000000000
  lambda( 66)= -0.000000000000
  lambda( 67)= -0.000000000000
  lambda( 68)= -0.000000000000
  lambda( 69)= -0.000000000000
  lambda( 70)= -0.000000000000
  lambda( 71)= -0.000000000000
  lambda( 72)= -0.000000000000
  lambda( 73)= -0.000000000000
  lambda( 74)= -0.000000000000
  lambda( 75)= -0.000000000000
  lambda( 76)= -0.000000000000
  lambda( 77)= -0.000000000000
  lambda( 78)= -0.000000000000
  lambda( 79)= -0.000000000000
  lambda( 80)= -0.000000000000
  lambda( 81)= -0.000000000000
  lambda( 82)= -0.000000000000
  lambda( 83)= -0.000000000000
  lambda( 84)= -0.000000000000
  lambda( 85)= -0.000000000000
  lambda( 86)= -0.000000000000
  lambda( 87)= -0.000000000000
  lambda( 88)= -0.000000000000
  lambda( 89)= -0.000000000000
  lambda( 90)= -0.000000000000
  lambda( 91)= -0.000000000000
  lambda( 92)= -0.000000000000
  lambda( 93)= -0.000000000000
  lambda( 94)= -0.000000000000
  lambda( 95)= -0.000000000000
  lambda( 96)= -0.000000000000
  lambda( 97)= -0.000000000000
  lambda( 98)= -0.000000000000
  lambda( 99)= -0.000000000000
  lambda(100)= -0.000000000000
  lambda(101)= -0.000000000000
  lambda(102)= -0.000000000000
  lambda(103)=  0.000000000000
  lambda(104)=  0.000000000000
  lambda(105)=  0.000000000000
  lambda(106)=  0.000000000000
  lambda(107)=  0.000000000000
  lambda(108)=  0.000000000000
  lambda(109)=  0.000000000000
  lambda(110)=  0.000000000000
  lambda(111)=  0.000000000000
  lambda(112)=  0.000000000000
  lambda(113)=  0.000000000000
  lambda(114)=  0.000000000000
  lambda(115)=  0.000000000000
  lambda(116)=  0.000000000000
  lambda(117)=  0.000000000000
  lambda(118)=  0.000000000000
  lambda(119)=  0.000000000000
  lambda(120)=  0.000000000000
  lambda(121)=  0.000000000000
  lambda(122)=  0.000000000000
  lambda(123)=  0.000000000000
  lambda(124)=  0.000000000000
  lambda(125)=  0.000000000000
  lambda(126)=  0.000000000000
  lambda(127)=  0.000000000000
  lambda(128)=  0.000000000000
  lambda(129)=  0.000000000000
  lambda(130)=  0.000000000000
  lambda(131)=  0.000000000000
  lambda(132)=  0.000000000000
  lambda(133)=  0.000000000000
  lambda(134)=  0.000000000000
  lambda(135)=  0.000000000000
  lambda(136)=  0.000000000000
  lambda(137)=  0.000000000000
  lambda(138)=  0.000000000000
  lambda(139)=  0.000000000000
  lambda(140)=  0.000000000000
  lambda(141)=  0.000000000000
  lambda(142)=  0.000000000000
  lambda(143)=  0.000000000000
  lambda(144)=  0.000000000000
  lambda(145)=  0.000000000000
  lambda(146)=  0.000000000000
  lambda(147)=  0.000000000000
  lambda(148)=  0.000000000000
  lambda(149)=  0.000000000000
  lambda(150)=  0.000000000000
  lambda(151)=  0.000000000000
  lambda(152)=  0.000000000000
  lambda(153)=  0.000000000000
  lambda(154)=  0.000000000000
  lambda(155)=  0.000000000000
  lambda(156)=  0.000000000000
  lambda(157)=  0.000000000000
  lambda(158)=  0.000000000000
  lambda(159)=  0.000000000000
  lambda(160)=  0.000000000000
  lambda(161)=  0.000000000000
  lambda(162)=  0.000000000000
  lambda(163)=  0.000000000000
  lambda(164)=  0.000000000000
  lambda(165)=  0.000000000000
  lambda(166)=  0.000000000000
  lambda(167)=  0.000000000000
  lambda(168)=  0.000000000000
  lambda(169)=  0.000000000000
  lambda(170)=  0.000000000000
  lambda(171)=  0.000000000000
  lambda(172)=  0.000000000000
  lambda(173)=  0.000000000000
  lambda(174)=  0.000000000000
  lambda(175)=  0.000000000000
  lambda(176)=  0.000000000000
  lambda(177)=  0.000000000000
  lambda(178)=  0.000000000000
  lambda(179)=  0.000000000000
  lambda(180)=  0.000000000000
  lambda(181)=  0.000000000000
  lambda(182)=  0.000000000000
  lambda(183)=  0.000000000000
  lambda(184)=  0.000000000000
  lambda(185)=  0.000000000000
  lambda(186)=  0.000000000000
  lambda(187)=  0.000000000000
  lambda(188)=  0.000000000000
  lambda(189)=  0.000000000000
  lambda(190)=  0.000000000000
  lambda(191)=  0.000000000000
  lambda(192)=  0.000000000000
  lambda(193)=  0.000000000000
  lambda(194)=  0.000000000000
  lambda(195)=  0.000000000000
  lambda(196)=  0.000000000000
  lambda(197)=  0.000000000000
  lambda(198)=  0.000000000000
  lambda(199)=  0.000000000000
  lambda(200)=  0.000000000000
  lambda(201)=  0.000000000000
  lambda(202)=  0.000000000687
  lambda(203)=  0.000000003096
  lambda(204)=  0.000000103954
  lambda(205)=  0.000001163670
  lambda(206)=  0.000001164479
  lambda(207)=  0.000005250212
  lambda(208)=  0.000007802002
  lambda(209)=  0.000007823496
  lambda(210)=  0.000013083154
  lambda(211)=  0.000013158686
  lambda(212)=  0.000013291022
  lambda(213)=  0.000025579626
  lambda(214)=  0.000025596517
  lambda(215)=  0.000032032979
  lambda(216)=  0.000032079371
  lambda(217)=  0.000056297519
  lambda(218)=  0.000056552502
  lambda(219)=  0.000128133363
  lambda(220)=  0.000206084052
  lambda(221)=  0.000206328234
  lambda(222)=  0.000255463996
  lambda(223)=  0.000255527181
  lambda(224)=  0.000332925347
  lambda(225)=  0.000333147520
  lambda(226)=  0.000439712491
  lambda(227)=  0.000455942723
  lambda(228)=  0.000456028981
  lambda(229)=  0.000571437988
  lambda(230)=  0.000767797013
  lambda(231)=  0.000767800159
  lambda(232)=  0.000932973351
  lambda(233)=  0.001587191782
  lambda(234)=  0.001587615363
  lambda(235)=  0.001950992130
  lambda(236)=  0.002842335374
  lambda(237)=  0.002843166536
  lambda(238)=  0.003560811219
  lambda(239)=  0.003700189958
  lambda(240)=  0.003701244110
  lambda(241)=  0.004980421165
  lambda(242)=  0.004982394734
  lambda(243)=  0.007697033034
  lambda(244)=  0.009290732814
  lambda(245)=  0.010338214358
  lambda(246)=  0.010339705143
  lambda(247)=  0.011615886037
  lambda(248)=  0.011616544808
  lambda(249)=  0.013058581155
  lambda(250)=  0.014047917600
  lambda(251)=  0.015805324502
  lambda(252)=  0.015805913506
  lambda(253)=  0.016413842352
  lambda(254)=  0.016414762969
  lambda(255)=  0.017383678614
  lambda(256)=  0.022373912872
  lambda(257)=  0.023814307885
  lambda(258)=  0.023815805965
  lambda(259)=  0.024673932419
  lambda(260)=  0.024675274286
  lambda(261)=  0.028334977561
  lambda(262)=  0.029609750995
  lambda(263)=  0.029679515349
  lambda(264)=  0.029808932505
  lambda(265)=  0.033612451986
  lambda(266)=  0.036519023645
  lambda(267)=  0.036521764398
  lambda(268)=  0.041368554304
  lambda(269)=  0.041460284617
  lambda(270)=  0.041461708984
  lambda(271)=  0.042586329659
  lambda(272)=  0.042590783137
  lambda(273)=  0.042934203301
  lambda(274)=  0.043213736981
  lambda(275)=  0.047965838714
  lambda(276)=  0.047971454260
  lambda(277)=  0.060005336318
  lambda(278)=  0.060469889286
  lambda(279)=  0.061695168110
  lambda(280)=  0.061695964221
  lambda(281)=  0.062694218690
  lambda(282)=  0.063724715693
  lambda(283)=  0.063726317734
  lambda(284)=  0.064753950503
  lambda(285)=  0.064756406091
  lambda(286)=  0.064973659046
  lambda(287)=  0.069418590339
  lambda(288)=  0.069814914752
  lambda(289)=  0.069818609298
  lambda(290)=  0.070703309215
  lambda(291)=  0.073104392741
  lambda(292)=  0.075797546941
  lambda(293)=  0.076251431354
  lambda(294)=  0.076252265360
  lambda(295)=  0.082751525083
  lambda(296)=  0.082754970148
  lambda(297)=  0.102075351751
  lambda(298)=  0.110210843276
  lambda(299)=  0.110215485600
  lambda(300)=  0.118678538706
  lambda(301)=  0.118679956661
  lambda(302)=  0.129081855660
  lambda(303)=  0.129084775868
  lambda(304)=  0.131033916168
  lambda(305)=  0.136192727679
  lambda(306)=  0.141992303398
  lambda(307)=  0.141996814866
  lambda(308)=  0.148341039020
  lambda(309)=  0.148349065804
  lambda(310)=  0.155005567703
  lambda(311)=  0.172430384155
  lambda(312)=  0.172431619300
  lambda(313)=  0.172536904663
  lambda(314)=  0.174655970165
  lambda(315)=  0.174657678304
  lambda(316)=  0.174685043106
  lambda(317)=  0.708870927265
  lambda(318)=  1.000000000000
  lambda(319)=  1.000000000000
  lambda(320)=  1.000000000000
  lambda(321)=  1.000000000000
  lambda(322)=  1.000000000000
  lambda(323)=  1.000000000000
  lambda(324)=  1.000000000000
  lambda(325)=  1.000000000000
  lambda(326)=  1.000000000000
  lambda(327)=  1.000000000000
  lambda(328)=  1.000000000000
  lambda(329)=  1.000000000000
  lambda(330)=  1.000000000000
  lambda(331)=  1.000000000000
  lambda(332)=  1.000000000000
  lambda(333)=  1.000000000000
  lambda(334)=  1.000000000000
  lambda(335)=  1.000000000000
  lambda(336)=  1.000000000000
  lambda(337)=  1.000000000000
  lambda(338)=  1.000000000000
  lambda(339)=  1.000000000000
  lambda(340)=  1.000000000000
  lambda(341)=  1.000000000000
  lambda(342)=  1.000000000000
  lambda(343)=  1.000000000000
  lambda(344)=  1.000000000000
  lambda(345)=  1.000000000000
  lambda(346)=  1.000000000000
  lambda(347)=  1.000000000000
  lambda(348)=  1.000000000000
  lambda(349)=  1.000000000000
  lambda(350)=  1.000000000000
  lambda(351)=  1.000000000000
  lambda(352)=  1.000000000000
  lambda(353)=  1.000000000000
  lambda(354)=  1.000000000000
  lambda(355)=  1.000000000000
  lambda(356)=  1.000000000000
  lambda(357)=  1.000000000000
  lambda(358)=  1.000000000000
  lambda(359)=  1.000000000000
  lambda(360)=  1.000000000000
  lambda(361)=  1.000000000000
  lambda(362)=  1.000000000000
  lambda(363)=  1.000000000000
  lambda(364)=  1.000000000000
  lambda(365)=  1.000000000000
  lambda(366)=  1.000000000000
  lambda(367)=  1.000000000000
  lambda(368)=  1.000000000000
  lambda(369)=  1.000000000000
  lambda(370)=  1.000000000000
  lambda(371)=  1.000000000000
  lambda(372)=  1.000000000000
  lambda(373)=  1.000000000000
  lambda(374)=  1.000000000000
  lambda(375)=  1.000000000000
  lambda(376)=  1.000000000000
  lambda(377)=  1.000000000000
  lambda(378)=  1.000000000000
  lambda(379)=  1.000000000000
  lambda(380)=  1.000000000000
  lambda(381)=  1.000000000000
  lambda(382)=  1.000000000000

 K-point   2 ndimwin: 382 we want the 64 leading eigenvector(s) of QPQ
  lambda(  1)= -0.000000000000
  lambda(  2)= -0.000000000000
  lambda(  3)= -0.000000000000
  lambda(  4)= -0.000000000000
  lambda(  5)= -0.000000000000
  lambda(  6)= -0.000000000000
  lambda(  7)= -0.000000000000
  lambda(  8)= -0.000000000000
  lambda(  9)= -0.000000000000
  lambda( 10)= -0.000000000000
  lambda( 11)= -0.000000000000
  lambda( 12)= -0.000000000000
  lambda( 13)= -0.000000000000
  lambda( 14)= -0.000000000000
  lambda( 15)= -0.000000000000
  lambda( 16)= -0.000000000000
  lambda( 17)= -0.000000000000
  lambda( 18)= -0.000000000000
  lambda( 19)= -0.000000000000
  lambda( 20)= -0.000000000000
  lambda( 21)= -0.000000000000
  lambda( 22)= -0.000000000000
  lambda( 23)= -0.000000000000
  lambda( 24)= -0.000000000000
  lambda( 25)= -0.000000000000
  lambda( 26)= -0.000000000000
  lambda( 27)= -0.000000000000
  lambda( 28)= -0.000000000000
  lambda( 29)= -0.000000000000
  lambda( 30)= -0.000000000000
  lambda( 31)= -0.000000000000
  lambda( 32)= -0.000000000000
  lambda( 33)= -0.000000000000
  lambda( 34)= -0.000000000000
  lambda( 35)= -0.000000000000
  lambda( 36)= -0.000000000000
  lambda( 37)= -0.000000000000
  lambda( 38)= -0.000000000000
  lambda( 39)= -0.000000000000
  lambda( 40)= -0.000000000000
  lambda( 41)= -0.000000000000
  lambda( 42)= -0.000000000000
  lambda( 43)= -0.000000000000
  lambda( 44)= -0.000000000000
  lambda( 45)= -0.000000000000
  lambda( 46)= -0.000000000000
  lambda( 47)= -0.000000000000
  lambda( 48)= -0.000000000000
  lambda( 49)= -0.000000000000
  lambda( 50)= -0.000000000000
  lambda( 51)= -0.000000000000
  lambda( 52)= -0.000000000000
  lambda( 53)= -0.000000000000
  lambda( 54)= -0.000000000000
  lambda( 55)= -0.000000000000
  lambda( 56)= -0.000000000000
  lambda( 57)= -0.000000000000
  lambda( 58)= -0.000000000000
  lambda( 59)= -0.000000000000
  lambda( 60)= -0.000000000000
  lambda( 61)= -0.000000000000
  lambda( 62)= -0.000000000000
  lambda( 63)= -0.000000000000
  lambda( 64)= -0.000000000000
  lambda( 65)= -0.000000000000
  lambda( 66)= -0.000000000000
  lambda( 67)= -0.000000000000
  lambda( 68)= -0.000000000000
  lambda( 69)= -0.000000000000
  lambda( 70)= -0.000000000000
  lambda( 71)= -0.000000000000
  lambda( 72)= -0.000000000000
  lambda( 73)= -0.000000000000
  lambda( 74)= -0.000000000000
  lambda( 75)= -0.000000000000
  lambda( 76)= -0.000000000000
  lambda( 77)= -0.000000000000
  lambda( 78)= -0.000000000000
  lambda( 79)= -0.000000000000
  lambda( 80)= -0.000000000000
  lambda( 81)= -0.000000000000
  lambda( 82)= -0.000000000000
  lambda( 83)= -0.000000000000
  lambda( 84)= -0.000000000000
  lambda( 85)= -0.000000000000
  lambda( 86)= -0.000000000000
  lambda( 87)= -0.000000000000
  lambda( 88)= -0.000000000000
  lambda( 89)= -0.000000000000
  lambda( 90)= -0.000000000000
  lambda( 91)= -0.000000000000
  lambda( 92)= -0.000000000000
  lambda( 93)= -0.000000000000
  lambda( 94)= -0.000000000000
  lambda( 95)= -0.000000000000
  lambda( 96)= -0.000000000000
  lambda( 97)=  0.000000000000
  lambda( 98)=  0.000000000000
  lambda( 99)=  0.000000000000
  lambda(100)=  0.000000000000
  lambda(101)=  0.000000000000
  lambda(102)=  0.000000000000
  lambda(103)=  0.000000000000
  lambda(104)=  0.000000000000
  lambda(105)=  0.000000000000
  lambda(106)=  0.000000000000
  lambda(107)=  0.000000000000
  lambda(108)=  0.000000000000
  lambda(109)=  0.000000000000
  lambda(110)=  0.000000000000
  lambda(111)=  0.000000000000
  lambda(112)=  0.000000000000
  lambda(113)=  0.000000000000
  lambda(114)=  0.000000000000
  lambda(115)=  0.000000000000
  lambda(116)=  0.000000000000
  lambda(117)=  0.000000000000
  lambda(118)=  0.000000000000
  lambda(119)=  0.000000000000
  lambda(120)=  0.000000000000
  lambda(121)=  0.000000000000
  lambda(122)=  0.000000000000
  lambda(123)=  0.000000000000
  lambda(124)=  0.000000000000
  lambda(125)=  0.000000000000
  lambda(126)=  0.000000000000
  lambda(127)=  0.000000000000
  lambda(128)=  0.000000000000
  lambda(129)=  0.000000000000
  lambda(130)=  0.000000000000
  lambda(131)=  0.000000000000
  lambda(132)=  0.000000000000
  lambda(133)=  0.000000000000
  lambda(134)=  0.000000000000
  lambda(135)=  0.000000000000
  lambda(136)=  0.000000000000
  lambda(137)=  0.000000000000
  lambda(138)=  0.000000000000
  lambda(139)=  0.000000000000
  lambda(140)=  0.000000000000
  lambda(141)=  0.000000000000
  lambda(142)=  0.000000000000
  lambda(143)=  0.000000000000
  lambda(144)=  0.000000000000
  lambda(145)=  0.000000000000
  lambda(146)=  0.000000000000
  lambda(147)=  0.000000000000
  lambda(148)=  0.000000000000
  lambda(149)=  0.000000000000
  lambda(150)=  0.000000000000
  lambda(151)=  0.000000000000
  lambda(152)=  0.000000000000
  lambda(153)=  0.000000000000
  lambda(154)=  0.000000000000
  lambda(155)=  0.000000000000
  lambda(156)=  0.000000000000
  lambda(157)=  0.000000000000
  lambda(158)=  0.000000000000
  lambda(159)=  0.000000000000
  lambda(160)=  0.000000000000
  lambda(161)=  0.000000000000
  lambda(162)=  0.000000000000
  lambda(163)=  0.000000000000
  lambda(164)=  0.000000000000
  lambda(165)=  0.000000000000
  lambda(166)=  0.000000000000
  lambda(167)=  0.000000000000
  lambda(168)=  0.000000000000
  lambda(169)=  0.000000000000
  lambda(170)=  0.000000000000
  lambda(171)=  0.000000000000
  lambda(172)=  0.000000000000
  lambda(173)=  0.000000000000
  lambda(174)=  0.000000000000
  lambda(175)=  0.000000000000
  lambda(176)=  0.000000000000
  lambda(177)=  0.000000000000
  lambda(178)=  0.000000000000
  lambda(179)=  0.000000000000
  lambda(180)=  0.000000000000
  lambda(181)=  0.000000000000
  lambda(182)=  0.000000000000
  lambda(183)=  0.000000000000
  lambda(184)=  0.000000000000
  lambda(185)=  0.000000000000
  lambda(186)=  0.000000000000
  lambda(187)=  0.000000000000
  lambda(188)=  0.000000000000
  lambda(189)=  0.000000000000
  lambda(190)=  0.000000000000
  lambda(191)=  0.000000000000
  lambda(192)=  0.000000000000
  lambda(193)=  0.000000000000
  lambda(194)=  0.000000000000
  lambda(195)=  0.000000000000
  lambda(196)=  0.000000000000
  lambda(197)=  0.000000000000
  lambda(198)=  0.000000000000
  lambda(199)=  0.000000000000
  lambda(200)=  0.000000000000
  lambda(201)=  0.000000000000
  lambda(202)=  0.000000355271
  lambda(203)=  0.000001356216
  lambda(204)=  0.000002868175
  lambda(205)=  0.000007476689
  lambda(206)=  0.000009023001
  lambda(207)=  0.000023018057
  lambda(208)=  0.000065830162
  lambda(209)=  0.000182891766
  lambda(210)=  0.000257115205
  lambda(211)=  0.000296645566
  lambda(212)=  0.000401775413
  lambda(213)=  0.000529030153
  lambda(214)=  0.000586756378
  lambda(215)=  0.000592177348
  lambda(216)=  0.000668684615
  lambda(217)=  0.000784926102
  lambda(218)=  0.000914625914
  lambda(219)=  0.000989844093
  lambda(220)=  0.001054506921
  lambda(221)=  0.001099124636
  lambda(222)=  0.001205113840
  lambda(223)=  0.001336028738
  lambda(224)=  0.001377545796
  lambda(225)=  0.001771616104
  lambda(226)=  0.001788462072
  lambda(227)=  0.002242697612
  lambda(228)=  0.002610317587
  lambda(229)=  0.002872825714
  lambda(230)=  0.002964662760
  lambda(231)=  0.003274968182
  lambda(232)=  0.003292586146
  lambda(233)=  0.003675107806
  lambda(234)=  0.003845707136
  lambda(235)=  0.003986828739
  lambda(236)=  0.004357020804
  lambda(237)=  0.004504965878
  lambda(238)=  0.004567169301
  lambda(239)=  0.004987899289
  lambda(240)=  0.005014542500
  lambda(241)=  0.005556861876
  lambda(242)=  0.006022798512
  lambda(243)=  0.006768258075
  lambda(244)=  0.008225407538
  lambda(245)=  0.009129097333
  lambda(246)=  0.009291673853
  lambda(247)=  0.010463177383
  lambda(248)=  0.011460834799
  lambda(249)=  0.012768365876
  lambda(250)=  0.012776398423
  lambda(251)=  0.015481876486
  lambda(252)=  0.016930662904
  lambda(253)=  0.017173633444
  lambda(254)=  0.018526777359
  lambda(255)=  0.019979834772
  lambda(256)=  0.020114608691
  lambda(257)=  0.021266475055
  lambda(258)=  0.021431235312
  lambda(259)=  0.022444196902
  lambda(260)=  0.023634061716
  lambda(261)=  0.024851165262
  lambda(262)=  0.025389845229
  lambda(263)=  0.027308103417
  lambda(264)=  0.028519975852
  lambda(265)=  0.028818028089
  lambda(266)=  0.030778467501
  lambda(267)=  0.035349979164
  lambda(268)=  0.035815315232
  lambda(269)=  0.037410682235
  lambda(270)=  0.038012334101
  lambda(271)=  0.039493621029
  lambda(272)=  0.041114272487
  lambda(273)=  0.045034544094
  lambda(274)=  0.050359701394
  lambda(275)=  0.050402180649
  lambda(276)=  0.053943913374
  lambda(277)=  0.057229509088
  lambda(278)=  0.057301026970
  lambda(279)=  0.059332530657
  lambda(280)=  0.060241060102
  lambda(281)=  0.060926436960
  lambda(282)=  0.061315017996
  lambda(283)=  0.061465728251
  lambda(284)=  0.063381004787
  lambda(285)=  0.063522963161
  lambda(286)=  0.064219368419
  lambda(287)=  0.064386984568
  lambda(288)=  0.064756172468
  lambda(289)=  0.065688265777
  lambda(290)=  0.065853863289
  lambda(291)=  0.074545070014
  lambda(292)=  0.076944031456
  lambda(293)=  0.078807238727
  lambda(294)=  0.088719937753
  lambda(295)=  0.089871246935
  lambda(296)=  0.095566837878
  lambda(297)=  0.095919372879
  lambda(298)=  0.103925329684
  lambda(299)=  0.108734056518
  lambda(300)=  0.111460375834
  lambda(301)=  0.114765933773
  lambda(302)=  0.115687001705
  lambda(303)=  0.121525466099
  lambda(304)=  0.127518454045
  lambda(305)=  0.140375941036
  lambda(306)=  0.143470974627
  lambda(307)=  0.153766819123
  lambda(308)=  0.156303452998
  lambda(309)=  0.157768356835
  lambda(310)=  0.160735781085
  lambda(311)=  0.163139623955
  lambda(312)=  0.164252209332
  lambda(313)=  0.170090529625
  lambda(314)=  0.170172885321
  lambda(315)=  0.171133952491
  lambda(316)=  0.176019242890
  lambda(317)=  0.177303347991
  lambda(318)=  0.700938706441
  lambda(319)=  1.000000000000
  lambda(320)=  1.000000000000
  lambda(321)=  1.000000000000
  lambda(322)=  1.000000000000
  lambda(323)=  1.000000000000
  lambda(324)=  1.000000000000
  lambda(325)=  1.000000000000
  lambda(326)=  1.000000000000
  lambda(327)=  1.000000000000
  lambda(328)=  1.000000000000
  lambda(329)=  1.000000000000
  lambda(330)=  1.000000000000
  lambda(331)=  1.000000000000
  lambda(332)=  1.000000000000
  lambda(333)=  1.000000000000
  lambda(334)=  1.000000000000
  lambda(335)=  1.000000000000
  lambda(336)=  1.000000000000
  lambda(337)=  1.000000000000
  lambda(338)=  1.000000000000
  lambda(339)=  1.000000000000
  lambda(340)=  1.000000000000
  lambda(341)=  1.000000000000
  lambda(342)=  1.000000000000
  lambda(343)=  1.000000000000
  lambda(344)=  1.000000000000
  lambda(345)=  1.000000000000
  lambda(346)=  1.000000000000
  lambda(347)=  1.000000000000
  lambda(348)=  1.000000000000
  lambda(349)=  1.000000000000
  lambda(350)=  1.000000000000
  lambda(351)=  1.000000000000
  lambda(352)=  1.000000000000
  lambda(353)=  1.000000000000
  lambda(354)=  1.000000000000
  lambda(355)=  1.000000000000
  lambda(356)=  1.000000000000
  lambda(357)=  1.000000000000
  lambda(358)=  1.000000000000
  lambda(359)=  1.000000000000
  lambda(360)=  1.000000000000
  lambda(361)=  1.000000000000
  lambda(362)=  1.000000000000
  lambda(363)=  1.000000000000
  lambda(364)=  1.000000000000
  lambda(365)=  1.000000000000
  lambda(366)=  1.000000000000
  lambda(367)=  1.000000000000
  lambda(368)=  1.000000000000
  lambda(369)=  1.000000000000
  lambda(370)=  1.000000000000
  lambda(371)=  1.000000000000
  lambda(372)=  1.000000000000
  lambda(373)=  1.000000000000
  lambda(374)=  1.000000000000
  lambda(375)=  1.000000000000
  lambda(376)=  1.000000000000
  lambda(377)=  1.000000000000
  lambda(378)=  1.000000000000
  lambda(379)=  1.000000000000
  lambda(380)=  1.000000000000
  lambda(381)=  1.000000000000
  lambda(382)=  1.000000000000

 K-point   3 ndimwin: 382 we want the 65 leading eigenvector(s) of QPQ
  lambda(  1)= -0.000000000000
  lambda(  2)= -0.000000000000
  lambda(  3)= -0.000000000000
  lambda(  4)= -0.000000000000
  lambda(  5)= -0.000000000000
  lambda(  6)= -0.000000000000
  lambda(  7)= -0.000000000000
  lambda(  8)= -0.000000000000
  lambda(  9)= -0.000000000000
  lambda( 10)= -0.000000000000
  lambda( 11)= -0.000000000000
  lambda( 12)= -0.000000000000
  lambda( 13)= -0.000000000000
  lambda( 14)= -0.000000000000
  lambda( 15)= -0.000000000000
  lambda( 16)= -0.000000000000
  lambda( 17)= -0.000000000000
  lambda( 18)= -0.000000000000
  lambda( 19)= -0.000000000000
  lambda( 20)= -0.000000000000
  lambda( 21)= -0.000000000000
  lambda( 22)= -0.000000000000
  lambda( 23)= -0.000000000000
  lambda( 24)= -0.000000000000
  lambda( 25)= -0.000000000000
  lambda( 26)= -0.000000000000
  lambda( 27)= -0.000000000000
  lambda( 28)= -0.000000000000
  lambda( 29)= -0.000000000000
  lambda( 30)= -0.000000000000
  lambda( 31)= -0.000000000000
  lambda( 32)= -0.000000000000
  lambda( 33)= -0.000000000000
  lambda( 34)= -0.000000000000
  lambda( 35)= -0.000000000000
  lambda( 36)= -0.000000000000
  lambda( 37)= -0.000000000000
  lambda( 38)= -0.000000000000
  lambda( 39)= -0.000000000000
  lambda( 40)= -0.000000000000
  lambda( 41)= -0.000000000000
  lambda( 42)= -0.000000000000
  lambda( 43)= -0.000000000000
  lambda( 44)= -0.000000000000
  lambda( 45)= -0.000000000000
  lambda( 46)= -0.000000000000
  lambda( 47)= -0.000000000000
  lambda( 48)= -0.000000000000
  lambda( 49)= -0.000000000000
  lambda( 50)= -0.000000000000
  lambda( 51)= -0.000000000000
  lambda( 52)= -0.000000000000
  lambda( 53)= -0.000000000000
  lambda( 54)= -0.000000000000
  lambda( 55)= -0.000000000000
  lambda( 56)= -0.000000000000
  lambda( 57)= -0.000000000000
  lambda( 58)= -0.000000000000
  lambda( 59)= -0.000000000000
  lambda( 60)= -0.000000000000
  lambda( 61)= -0.000000000000
  lambda( 62)= -0.000000000000
  lambda( 63)= -0.000000000000
  lambda( 64)= -0.000000000000
  lambda( 65)= -0.000000000000
  lambda( 66)= -0.000000000000
  lambda( 67)= -0.000000000000
  lambda( 68)= -0.000000000000
  lambda( 69)= -0.000000000000
  lambda( 70)= -0.000000000000
  lambda( 71)= -0.000000000000
  lambda( 72)= -0.000000000000
  lambda( 73)= -0.000000000000
  lambda( 74)= -0.000000000000
  lambda( 75)= -0.000000000000
  lambda( 76)= -0.000000000000
  lambda( 77)= -0.000000000000
  lambda( 78)= -0.000000000000
  lambda( 79)= -0.000000000000
  lambda( 80)= -0.000000000000
  lambda( 81)= -0.000000000000
  lambda( 82)= -0.000000000000
  lambda( 83)= -0.000000000000
  lambda( 84)= -0.000000000000
  lambda( 85)= -0.000000000000
  lambda( 86)= -0.000000000000
  lambda( 87)= -0.000000000000
  lambda( 88)= -0.000000000000
  lambda( 89)= -0.000000000000
  lambda( 90)= -0.000000000000
  lambda( 91)= -0.000000000000
  lambda( 92)= -0.000000000000
  lambda( 93)= -0.000000000000
  lambda( 94)= -0.000000000000
  lambda( 95)= -0.000000000000
  lambda( 96)= -0.000000000000
  lambda( 97)= -0.000000000000
  lambda( 98)= -0.000000000000
  lambda( 99)= -0.000000000000
  lambda(100)= -0.000000000000
  lambda(101)=  0.000000000000
  lambda(102)=  0.000000000000
  lambda(103)=  0.000000000000
  lambda(104)=  0.000000000000
  lambda(105)=  0.000000000000
  lambda(106)=  0.000000000000
  lambda(107)=  0.000000000000
  lambda(108)=  0.000000000000
  lambda(109)=  0.000000000000
  lambda(110)=  0.000000000000
  lambda(111)=  0.000000000000
  lambda(112)=  0.000000000000
  lambda(113)=  0.000000000000
  lambda(114)=  0.000000000000
  lambda(115)=  0.000000000000
  lambda(116)=  0.000000000000
  lambda(117)=  0.000000000000
  lambda(118)=  0.000000000000
  lambda(119)=  0.000000000000
  lambda(120)=  0.000000000000
  lambda(121)=  0.000000000000
  lambda(122)=  0.000000000000
  lambda(123)=  0.000000000000
  lambda(124)=  0.000000000000
  lambda(125)=  0.000000000000
  lambda(126)=  0.000000000000
  lambda(127)=  0.000000000000
  lambda(128)=  0.000000000000
  lambda(129)=  0.000000000000
  lambda(130)=  0.000000000000
  lambda(131)=  0.000000000000
  lambda(132)=  0.000000000000
  lambda(133)=  0.000000000000
  lambda(134)=  0.000000000000
  lambda(135)=  0.000000000000
  lambda(136)=  0.000000000000
  lambda(137)=  0.000000000000
  lambda(138)=  0.000000000000
  lambda(139)=  0.000000000000
  lambda(140)=  0.000000000000
  lambda(141)=  0.000000000000
  lambda(142)=  0.000000000000
  lambda(143)=  0.000000000000
  lambda(144)=  0.000000000000
  lambda(145)=  0.000000000000
  lambda(146)=  0.000000000000
  lambda(147)=  0.000000000000
  lambda(148)=  0.000000000000
  lambda(149)=  0.000000000000
  lambda(150)=  0.000000000000
  lambda(151)=  0.000000000000
  lambda(152)=  0.000000000000
  lambda(153)=  0.000000000000
  lambda(154)=  0.000000000000
  lambda(155)=  0.000000000000
  lambda(156)=  0.000000000000
  lambda(157)=  0.000000000000
  lambda(158)=  0.000000000000
  lambda(159)=  0.000000000000
  lambda(160)=  0.000000000000
  lambda(161)=  0.000000000000
  lambda(162)=  0.000000000000
  lambda(163)=  0.000000000000
  lambda(164)=  0.000000000000
  lambda(165)=  0.000000000000
  lambda(166)=  0.000000000000
  lambda(167)=  0.000000000000
  lambda(168)=  0.000000000000
  lambda(169)=  0.000000000000
  lambda(170)=  0.000000000000
  lambda(171)=  0.000000000000
  lambda(172)=  0.000000000000
  lambda(173)=  0.000000000000
  lambda(174)=  0.000000000000
  lambda(175)=  0.000000000000
  lambda(176)=  0.000000000000
  lambda(177)=  0.000000000000
  lambda(178)=  0.000000000000
  lambda(179)=  0.000000000000
  lambda(180)=  0.000000000000
  lambda(181)=  0.000000000000
  lambda(182)=  0.000000000000
  lambda(183)=  0.000000000000
  lambda(184)=  0.000000000000
  lambda(185)=  0.000000000000
  lambda(186)=  0.000000000000
  lambda(187)=  0.000000000000
  lambda(188)=  0.000000000000
  lambda(189)=  0.000000000000
  lambda(190)=  0.000000000000
  lambda(191)=  0.000000000000
  lambda(192)=  0.000000000000
  lambda(193)=  0.000000000000
  lambda(194)=  0.000000000000
  lambda(195)=  0.000000000000
  lambda(196)=  0.000000000000
  lambda(197)=  0.000000000000
  lambda(198)=  0.000000000000
  lambda(199)=  0.000000000000
  lambda(200)=  0.000000000000
  lambda(201)=  0.000000000000
  lambda(202)=  0.000001087294
  lambda(203)=  0.000001804437
  lambda(204)=  0.000003360755
  lambda(205)=  0.000004329755
  lambda(206)=  0.000011927102
  lambda(207)=  0.000056247231
  lambda(208)=  0.000090843523
  lambda(209)=  0.000156339029
  lambda(210)=  0.000332118618
  lambda(211)=  0.000348918960
  lambda(212)=  0.000572366993
  lambda(213)=  0.000661423506
  lambda(214)=  0.000921582932
  lambda(215)=  0.000959600468
  lambda(216)=  0.000965178170
  lambda(217)=  0.001060413681
  lambda(218)=  0.001335384372
  lambda(219)=  0.001347823125
  lambda(220)=  0.001387655231
  lambda(221)=  0.002066822462
  lambda(222)=  0.002521705595
  lambda(223)=  0.002576066781
  lambda(224)=  0.002787815201
  lambda(225)=  0.002980222810
  lambda(226)=  0.003081126672
  lambda(227)=  0.003789619053
  lambda(228)=  0.003812071198
  lambda(229)=  0.004369415220
  lambda(230)=  0.004601554265
  lambda(231)=  0.004974954787
  lambda(232)=  0.006316133723
  lambda(233)=  0.006523828680
  lambda(234)=  0.006571612197
  lambda(235)=  0.006690777418
  lambda(236)=  0.007468421229
  lambda(237)=  0.008179537160
  lambda(238)=  0.009579391269
  lambda(239)=  0.010127531288
  lambda(240)=  0.010921859196
  lambda(241)=  0.011472240983
  lambda(242)=  0.011769580049
  lambda(243)=  0.011892525608
  lambda(244)=  0.012318410498
  lambda(245)=  0.012517992555
  lambda(246)=  0.013035872939
  lambda(247)=  0.013244581992
  lambda(248)=  0.014409084833
  lambda(249)=  0.014860124959
  lambda(250)=  0.015320490748
  lambda(251)=  0.016056864619
  lambda(252)=  0.016999071931
  lambda(253)=  0.017560393965
  lambda(254)=  0.017584146495
  lambda(255)=  0.019197324906
  lambda(256)=  0.019555918776
  lambda(257)=  0.020937338026
  lambda(258)=  0.022026823955
  lambda(259)=  0.022824174519
  lambda(260)=  0.022841078739
  lambda(261)=  0.024313393210
  lambda(262)=  0.025566465738
  lambda(263)=  0.026447297570
  lambda(264)=  0.028770728453
  lambda(265)=  0.029781196090
  lambda(266)=  0.034154253583
  lambda(267)=  0.034392955407
  lambda(268)=  0.035072989891
  lambda(269)=  0.038572068580
  lambda(270)=  0.041958059649
  lambda(271)=  0.043306239381
  lambda(272)=  0.046617793812
  lambda(273)=  0.049311131358
  lambda(274)=  0.053651850377
  lambda(275)=  0.053761536041
  lambda(276)=  0.057760544437
  lambda(277)=  0.057851782853
  lambda(278)=  0.058145606989
  lambda(279)=  0.058803180573
  lambda(280)=  0.059840105699
  lambda(281)=  0.060374195395
  lambda(282)=  0.060752460825
  lambda(283)=  0.061656690922
  lambda(284)=  0.062521617839
  lambda(285)=  0.063522490255
  lambda(286)=  0.063910351223
  lambda(287)=  0.066933822124
  lambda(288)=  0.068332936549
  lambda(289)=  0.070870471651
  lambda(290)=  0.073763051284
  lambda(291)=  0.078352899789
  lambda(292)=  0.081354961821
  lambda(293)=  0.088986915543
  lambda(294)=  0.098202006320
  lambda(295)=  0.099197218174
  lambda(296)=  0.099710343986
  lambda(297)=  0.101820783123
  lambda(298)=  0.106445371401
  lambda(299)=  0.109343597564
  lambda(300)=  0.109732075715
  lambda(301)=  0.112854790260
  lambda(302)=  0.115329008275
  lambda(303)=  0.123009103937
  lambda(304)=  0.128890447872
  lambda(305)=  0.138757363517
  lambda(306)=  0.141706708875
  lambda(307)=  0.147962575720
  lambda(308)=  0.155442257399
  lambda(309)=  0.156311991045
  lambda(310)=  0.161773214447
  lambda(311)=  0.166055239605
  lambda(312)=  0.166802479815
  lambda(313)=  0.171000451922
  lambda(314)=  0.171231557257
  lambda(315)=  0.176386749809
  lambda(316)=  0.185803345749
  lambda(317)=  0.694004566743
  lambda(318)=  1.000000000000
  lambda(319)=  1.000000000000
  lambda(320)=  1.000000000000
  lambda(321)=  1.000000000000
  lambda(322)=  1.000000000000
  lambda(323)=  1.000000000000
  lambda(324)=  1.000000000000
  lambda(325)=  1.000000000000
  lambda(326)=  1.000000000000
  lambda(327)=  1.000000000000
  lambda(328)=  1.000000000000
  lambda(329)=  1.000000000000
  lambda(330)=  1.000000000000
  lambda(331)=  1.000000000000
[...]
  WF centre and spread   95  (  5.168947,  0.991796,  3.496835 )     1.98359683
  WF centre and spread   96  (  5.169187,  0.978123,  3.306817 )     1.93618451
  WF centre and spread   97  (  5.169083,  1.013698,  3.306823 )     1.93583889
  WF centre and spread   98  (  8.620599,  0.995286, -0.122425 )     1.97192241
  WF centre and spread   99  (  8.620076,  0.985109,  0.064207 )     1.97350050
  WF centre and spread  100  (  8.621118,  1.011124,  0.062769 )     1.96745905
  WF centre and spread  101  (  8.610595,  1.007223,  3.497495 )     1.98811657
  WF centre and spread  102  (  8.609716,  1.000653,  3.313767 )     1.97602910
  WF centre and spread  103  (  8.612609,  1.018371,  3.311781 )     1.98274378
  WF centre and spread  104  ( 12.061339,  1.007589, -0.148281 )     2.01192638
  WF centre and spread  105  ( 12.061436,  0.995779,  0.031540 )     1.91838255
  WF centre and spread  106  ( 12.061222,  1.032970,  0.030000 )     1.92641238
  WF centre and spread  107  ( 12.060792,  1.013364,  3.560359 )     2.03778238
  WF centre and spread  108  ( 12.061327,  1.011394,  3.367582 )     1.92947093
  WF centre and spread  109  ( 12.061227,  1.037813,  3.368630 )     1.94868000
  WF centre and spread  110  ( 10.354418,  3.985018, -0.151448 )     1.99232833
  WF centre and spread  111  ( 10.347943,  3.972962,  0.029466 )     1.94993434
  WF centre and spread  112  ( 10.350651,  4.000971,  0.026430 )     1.94972368
  WF centre and spread  113  ( 10.353580,  3.984737,  3.527601 )     1.99025065
  WF centre and spread  114  ( 10.346221,  3.972499,  3.342221 )     1.95055301
  WF centre and spread  115  ( 10.349069,  3.999417,  3.344396 )     1.95239511
  WF centre and spread  116  (  8.629681,  6.952020, -0.148826 )     2.01021586
  WF centre and spread  117  (  8.632864,  6.942101,  0.030576 )     1.92633117
  WF centre and spread  118  (  8.628084,  6.969546,  0.031090 )     1.92037736
  WF centre and spread  119  (  8.632754,  6.950167,  3.560482 )     2.04165881
  WF centre and spread  120  (  8.637552,  6.933563,  3.368457 )     1.94434109
  WF centre and spread  121  (  8.642457,  6.967041,  3.368293 )     1.93256023
  WF centre and spread  122  (  6.885264,  9.937269, -0.023641 )     2.00768068
  WF centre and spread  123  (  6.892769,  9.919602,  0.155155 )     1.99876880
  WF centre and spread  124  (  6.879496,  9.950798,  0.157244 )     2.01943275
  WF centre and spread  125  (  6.900383,  9.944059,  3.513606 )     2.05376752
  WF centre and spread  126  (  6.973351,  9.944450,  3.403318 )     2.02252006
  WF centre and spread  127  (  6.925676,  9.991657,  3.368208 )     2.02275540
  WF centre and spread  128  (  3.494465,  9.927438, -0.006174 )     2.01056649
  WF centre and spread  129  (  3.672441,  9.812311,  0.331865 )     2.35296527
  WF centre and spread  130  (  3.425747,  9.958631,  0.143900 )     1.98685192
  WF centre and spread  131  (  3.487196,  9.926111,  3.484497 )     2.12817479
  WF centre and spread  132  (  3.499721,  9.894939,  3.287825 )     2.22552978
  WF centre and spread  133  (  3.407887,  9.993122,  3.364260 )     2.02244746
  WF centre and spread  134  ( -0.000402,  9.938444, -0.122202 )     1.97256609
  WF centre and spread  135  (  0.003435,  9.926083,  0.060309 )     1.96855974
  WF centre and spread  136  ( -0.001154,  9.960118,  0.066713 )     1.97240029
  WF centre and spread  137  ( -0.016635,  9.941802,  3.497367 )     1.98823254
  WF centre and spread  138  ( -0.004661,  9.928381,  3.314359 )     1.98425093
  WF centre and spread  139  ( -0.021523,  9.962370,  3.311408 )     1.97433739
  WF centre and spread  140  ( -3.446588,  9.938603, -0.122066 )     1.97317345
  WF centre and spread  141  ( -3.441747,  9.925883,  0.059994 )     1.95189196
  WF centre and spread  142  ( -3.444945,  9.960233,  0.066848 )     1.97401669
  WF centre and spread  143  ( -3.427840,  9.942315,  3.498478 )     1.98251555
  WF centre and spread  144  ( -3.436362,  9.928159,  3.314377 )     1.97295816
  WF centre and spread  145  ( -3.424262,  9.962823,  3.311481 )     1.97539187
  WF centre and spread  146  (  6.897809,  3.978957, -0.122241 )     1.97243905
  WF centre and spread  147  (  6.895057,  3.966230,  0.065973 )     1.96665323
  WF centre and spread  148  (  6.901010,  3.997069,  0.060756 )     1.96185099
  WF centre and spread  149  (  6.902961,  3.961797,  3.498189 )     1.98314206
  WF centre and spread  150  (  6.900557,  3.950086,  3.310582 )     1.97436203
  WF centre and spread  151  (  6.905343,  3.987734,  3.315499 )     1.97616071
  WF centre and spread  152  (  5.173172,  6.984894, -0.016252 )     2.02422406
  WF centre and spread  153  (  5.171131,  6.939006,  0.141823 )     1.98493529
  WF centre and spread  154  (  5.185633,  7.050882,  0.193126 )     2.08261726
  WF centre and spread  155  (  5.178570,  6.957000,  3.502915 )     2.07228244
  WF centre and spread  156  (  5.171823,  6.890025,  3.372164 )     1.98726733
  WF centre and spread  157  (  5.189487,  6.962934,  3.383025 )     2.10159702
  WF centre and spread  158  (  1.709465,  6.952306, -0.148501 )     2.01179421
  WF centre and spread  159  (  1.704053,  6.941871,  0.030694 )     1.92474922
  WF centre and spread  160  (  1.710400,  6.968974,  0.031155 )     1.92096005
  WF centre and spread  161  (  1.704017,  6.949800,  3.560152 )     2.03768813
  WF centre and spread  162  (  1.701012,  6.933500,  3.368309 )     1.94482107
  WF centre and spread  163  (  1.695872,  6.967149,  3.367840 )     1.93371344
  WF centre and spread  164  (  3.439770,  3.980257, -0.120753 )     1.97568380
  WF centre and spread  165  (  3.443847,  3.967538,  0.066366 )     1.97179237
  WF centre and spread  166  (  3.437776,  3.997990,  0.060902 )     1.96030621
  WF centre and spread  167  (  3.435546,  3.961469,  3.498118 )     1.98375567
  WF centre and spread  168  (  3.437793,  3.949877,  3.310766 )     1.97419962
  WF centre and spread  169  (  3.434040,  3.990112,  3.315385 )     1.98437355
  WF centre and spread  170  ( -0.016026,  3.985129, -0.151551 )     1.99265678
  WF centre and spread  171  ( -0.010371,  3.973067,  0.029511 )     1.94907874
  WF centre and spread  172  ( -0.012646,  4.001091,  0.026442 )     1.94904694
  WF centre and spread  173  ( -0.015276,  3.984621,  3.527411 )     1.99112067
  WF centre and spread  174  ( -0.008371,  3.972444,  3.342124 )     1.95084047
  WF centre and spread  175  ( -0.010854,  3.999602,  3.344385 )     1.95244038
  WF centre and spread  176  ( -1.722840,  6.941945, -0.151467 )     1.99287367
  WF centre and spread  177  ( -1.722978,  6.935510,  0.024904 )     1.94928345
  WF centre and spread  178  ( -1.723176,  6.967743,  0.030993 )     1.94951450
  WF centre and spread  179  ( -1.723019,  6.942743,  3.527617 )     1.99084936
  WF centre and spread  180  ( -1.722914,  6.937912,  3.345408 )     1.95323854
  WF centre and spread  181  ( -1.723097,  6.969325,  3.341147 )     1.94907345
  Sum of centres and spreads (646.638112,927.961330,326.797693 )   331.57341695
 
         Spreads (Ang^2)       Omega I      =   314.501696102
        ================       Omega D      =     0.000130404
                               Omega OD     =    17.071590308
    Final Spread (Ang^2)       Omega Total  =   331.573416814
 ------------------------------------------------------------------------------
 Final centres (translated to home cell for writing xyz file)
  WF centre    1  (  5.166999,  8.956440,  4.624994 )
  WF centre    2  (  5.166976,  8.970091,  4.764619 )
  WF centre    3  (  5.167046,  8.927150,  4.769829 )
  WF centre    4  (  5.167570,  9.035650,  4.673259 )
  WF centre    5  (  5.167043,  8.875362,  4.670892 )
  WF centre    6  ( -0.051462,  0.067958,  1.708057 )
  WF centre    7  ( -0.035055,  0.057072,  1.701482 )
  WF centre    8  ( -0.038962,  0.075372,  1.713291 )
  WF centre    9  ( -0.046994,  0.228189,  1.702679 )
  WF centre   10  ( -0.033161, -0.088165,  1.713345 )
  WF centre   11  (  3.446183, -0.006527,  1.682619 )
  WF centre   12  (  3.440054, -0.014717,  1.683903 )
  WF centre   13  (  3.438875,  0.007228,  1.682710 )
  WF centre   14  (  3.434756,  0.151963,  1.682912 )
  WF centre   15  (  3.426178, -0.161923,  1.683594 )
  WF centre   16  (  6.891987, -0.006608,  1.683198 )
  WF centre   17  (  6.898184, -0.014762,  1.683883 )
  WF centre   18  (  6.899236,  0.007187,  1.682678 )
  WF centre   19  (  6.903591,  0.152044,  1.683010 )
  WF centre   20  (  6.912448, -0.162170,  1.683666 )
  WF centre   21  ( 10.388355,  0.068630,  1.708063 )
  WF centre   22  ( 10.373550,  0.053553,  1.702067 )
  WF centre   23  ( 10.378551,  0.071971,  1.713246 )
  WF centre   24  ( 10.386251,  0.227914,  1.703092 )
  WF centre   25  ( 10.364135, -0.086035,  1.710797 )
  WF centre   26  (  8.673247,  3.013008,  1.681355 )
  WF centre   27  (  8.663327,  3.004736,  1.683015 )
  WF centre   28  (  8.669921,  3.022685,  1.681393 )
  WF centre   29  (  8.675054,  3.172233,  1.680895 )
  WF centre   30  (  8.677997,  2.873238,  1.681095 )
  WF centre   31  (  6.980241,  5.968209,  1.708951 )
  WF centre   32  (  6.965557,  5.957461,  1.711389 )
  WF centre   33  (  6.970831,  5.978274,  1.703539 )
  WF centre   34  (  6.953124,  6.113227,  1.709338 )
  WF centre   35  (  6.989014,  5.827135,  1.705214 )
  WF centre   36  (  5.169601,  8.945814,  1.753016 )
  WF centre   37  (  5.174776,  8.953925,  5.681992 )
  WF centre   38  (  5.161478,  8.960739,  1.766003 )
  WF centre   39  (  5.173023,  9.118710,  1.728021 )
  WF centre   40  (  5.178095,  8.790251,  1.724681 )
  WF centre   41  (  1.682488,  8.870260,  1.706492 )
  WF centre   42  (  1.691999,  8.875516,  1.709469 )
  WF centre   43  (  1.683477,  8.902639,  1.704801 )
  WF centre   44  (  1.707611,  9.037480,  1.710312 )
  WF centre   45  (  1.660543,  8.739817,  1.705698 )
  WF centre   46  ( -1.723078,  8.882175,  1.681396 )
  WF centre   47  ( -1.722328,  8.878592,  1.680864 )
  WF centre   48  ( -1.722772,  8.909018,  1.683738 )
  WF centre   49  ( -1.722525,  9.033260,  1.681017 )
  WF centre   50  ( -1.722774,  8.736665,  1.680634 )
  WF centre   51  ( -5.126538,  8.870481,  1.707924 )
  WF centre   52  ( -5.131178,  8.873356,  1.709658 )
  WF centre   53  ( -5.128385,  8.901223,  1.705380 )
  WF centre   54  ( -5.151429,  9.036567,  1.711674 )
  WF centre   55  ( -5.107913,  8.740039,  1.704138 )
  WF centre   56  (  5.169055,  2.980171,  1.683013 )
  WF centre   57  (  5.169077,  2.982016,  1.681832 )
  WF centre   58  (  5.169023,  3.001947,  1.684137 )
  WF centre   59  (  5.169383,  3.163655,  1.684107 )
  WF centre   60  (  5.168965,  2.847144,  1.682756 )
  WF centre   61  (  3.358139,  5.969782,  1.708017 )
  WF centre   62  (  3.373615,  5.956595,  1.710720 )
  WF centre   63  (  3.368159,  5.979620,  1.703870 )
  WF centre   64  (  3.385476,  6.121111,  1.709073 )
  WF centre   65  (  3.348824,  5.827009,  1.706444 )
  WF centre   66  ( -0.010506,  5.957222,  1.689883 )
  WF centre   67  ( -0.013402,  5.950137,  1.686749 )
  WF centre   68  ( -0.011924,  5.972838,  1.687356 )
  WF centre   69  ( -0.008533,  6.107222,  1.687505 )
  WF centre   70  ( -0.025072,  5.817569,  1.688096 )
  WF centre   71  (  1.664824,  3.012957,  1.680527 )
  WF centre   72  (  1.675151,  3.004808,  1.683059 )
  WF centre   73  (  1.668149,  3.023530,  1.681760 )
  WF centre   74  (  1.663986,  3.172780,  1.680811 )
  WF centre   75  (  1.660388,  2.872873,  1.680905 )
  WF centre   76  ( -1.723009,  2.992330,  1.690102 )
  WF centre   77  ( -1.723059,  2.986457,  1.687546 )
  WF centre   78  ( -1.723083,  3.011533,  1.686337 )
  WF centre   79  ( -1.723043,  3.155407,  1.688371 )
  WF centre   80  ( -1.722936,  2.857870,  1.687289 )
  WF centre   81  ( -3.435700,  5.957301,  1.689933 )
  WF centre   82  ( -3.432760,  5.950098,  1.686791 )
  WF centre   83  ( -3.434071,  5.972820,  1.687319 )
  WF centre   84  ( -3.437336,  6.107349,  1.687680 )
  WF centre   85  ( -3.421018,  5.817447,  1.688098 )
  WF centre   86  (  1.716232,  0.994747, -0.120792 )
  WF centre   87  (  1.718760,  0.986266,  0.064501 )
  WF centre   88  (  1.718409,  1.013764,  0.062810 )
  WF centre   89  (  1.729408,  1.008195,  3.498517 )
  WF centre   90  (  1.728548,  0.999803,  3.313645 )
  WF centre   91  (  1.726899,  1.021276,  3.312065 )
  WF centre   92  (  5.169070,  0.991677, -0.126802 )
  WF centre   93  (  5.169252,  0.977330,  0.061027 )
  WF centre   94  (  5.169118,  1.014544,  0.060980 )
  WF centre   95  (  5.168947,  0.991796,  3.496835 )
  WF centre   96  (  5.169187,  0.978123,  3.306817 )
  WF centre   97  (  5.169083,  1.013698,  3.306823 )
  WF centre   98  (  8.620599,  0.995286, -0.122425 )
  WF centre   99  (  8.620076,  0.985109,  0.064207 )
  WF centre  100  (  8.621118,  1.011124,  0.062769 )
  WF centre  101  (  8.610595,  1.007223,  3.497495 )
  WF centre  102  (  8.609716,  1.000653,  3.313767 )
  WF centre  103  (  8.612609,  1.018371,  3.311781 )
  WF centre  104  ( 12.061339,  1.007589, -0.148281 )
  WF centre  105  ( 12.061436,  0.995779,  0.031540 )
  WF centre  106  ( 12.061222,  1.032970,  0.030000 )
  WF centre  107  ( 12.060792,  1.013364,  3.560359 )
  WF centre  108  ( 12.061327,  1.011394,  3.367582 )
  WF centre  109  ( 12.061227,  1.037813,  3.368630 )
  WF centre  110  ( 10.354418,  3.985018, -0.151448 )
  WF centre  111  ( 10.347943,  3.972962,  0.029466 )
  WF centre  112  ( 10.350651,  4.000971,  0.026430 )
  WF centre  113  ( 10.353580,  3.984737,  3.527601 )
  WF centre  114  ( 10.346221,  3.972499,  3.342221 )
  WF centre  115  ( 10.349069,  3.999417,  3.344396 )
  WF centre  116  (  8.629681,  6.952020, -0.148826 )
  WF centre  117  (  8.632864,  6.942101,  0.030576 )
  WF centre  118  (  8.628084,  6.969546,  0.031090 )
  WF centre  119  (  8.632754,  6.950167,  3.560482 )
  WF centre  120  (  8.637552,  6.933563,  3.368457 )
  WF centre  121  (  8.642457,  6.967041,  3.368293 )
  WF centre  122  (  6.885264,  9.937269, -0.023641 )
  WF centre  123  (  6.892769,  9.919602,  0.155155 )
  WF centre  124  (  6.879496,  9.950798,  0.157244 )
  WF centre  125  (  6.900383,  9.944059,  3.513606 )
  WF centre  126  (  6.973351,  9.944450,  3.403318 )
  WF centre  127  (  6.925676,  9.991657,  3.368208 )
  WF centre  128  (  3.494465,  9.927438, -0.006174 )
  WF centre  129  (  3.672441,  9.812311,  0.331865 )
  WF centre  130  (  3.425747,  9.958631,  0.143900 )
  WF centre  131  (  3.487196,  9.926111,  3.484497 )
  WF centre  132  (  3.499721,  9.894939,  3.287825 )
  WF centre  133  (  3.407887,  9.993122,  3.364260 )
  WF centre  134  ( -0.000402,  9.938444, -0.122202 )
  WF centre  135  (  0.003435,  9.926083,  0.060309 )
  WF centre  136  ( -0.001154,  9.960118,  0.066713 )
  WF centre  137  ( -0.016635,  9.941802,  3.497367 )
  WF centre  138  ( -0.004661,  9.928381,  3.314359 )
  WF centre  139  ( -0.021523,  9.962370,  3.311408 )
  WF centre  140  ( -3.446588,  9.938603, -0.122066 )
  WF centre  141  ( -3.441747,  9.925883,  0.059994 )
  WF centre  142  ( -3.444945,  9.960233,  0.066848 )
  WF centre  143  ( -3.427840,  9.942315,  3.498478 )
  WF centre  144  ( -3.436362,  9.928159,  3.314377 )
  WF centre  145  ( -3.424262,  9.962823,  3.311481 )
  WF centre  146  (  6.897809,  3.978957, -0.122241 )
  WF centre  147  (  6.895057,  3.966230,  0.065973 )
  WF centre  148  (  6.901010,  3.997069,  0.060756 )
  WF centre  149  (  6.902961,  3.961797,  3.498189 )
  WF centre  150  (  6.900557,  3.950086,  3.310582 )
  WF centre  151  (  6.905343,  3.987734,  3.315499 )
  WF centre  152  (  5.173172,  6.984894, -0.016252 )
  WF centre  153  (  5.171131,  6.939006,  0.141823 )
  WF centre  154  (  5.185633,  7.050882,  0.193126 )
  WF centre  155  (  5.178570,  6.957000,  3.502915 )
  WF centre  156  (  5.171823,  6.890025,  3.372164 )
  WF centre  157  (  5.189487,  6.962934,  3.383025 )
  WF centre  158  (  1.709465,  6.952306, -0.148501 )
  WF centre  159  (  1.704053,  6.941871,  0.030694 )
  WF centre  160  (  1.710400,  6.968974,  0.031155 )
  WF centre  161  (  1.704017,  6.949800,  3.560152 )
  WF centre  162  (  1.701012,  6.933500,  3.368309 )
  WF centre  163  (  1.695872,  6.967149,  3.367840 )
  WF centre  164  (  3.439770,  3.980257, -0.120753 )
  WF centre  165  (  3.443847,  3.967538,  0.066366 )
  WF centre  166  (  3.437776,  3.997990,  0.060902 )
  WF centre  167  (  3.435546,  3.961469,  3.498118 )
  WF centre  168  (  3.437793,  3.949877,  3.310766 )
  WF centre  169  (  3.434040,  3.990112,  3.315385 )
  WF centre  170  ( -0.016026,  3.985129, -0.151551 )
  WF centre  171  ( -0.010371,  3.973067,  0.029511 )
  WF centre  172  ( -0.012646,  4.001091,  0.026442 )
  WF centre  173  ( -0.015276,  3.984621,  3.527411 )
  WF centre  174  ( -0.008371,  3.972444,  3.342124 )
  WF centre  175  ( -0.010854,  3.999602,  3.344385 )
  WF centre  176  ( -1.722840,  6.941945, -0.151467 )
  WF centre  177  ( -1.722978,  6.935510,  0.024904 )
  WF centre  178  ( -1.723176,  6.967743,  0.030993 )
  WF centre  179  ( -1.723019,  6.942743,  3.527617 )
  WF centre  180  ( -1.722914,  6.937912,  3.345408 )
  WF centre  181  ( -1.723097,  6.969325,  3.341147 )
 ------------------------------------------------------------------------------
 

 Wannier centres written to file 1Fe_Nbconf.up_centres.xyz
  
  Omega Invariant:   1-s^2 =   314.501696102 (Ang^2)
                   -2log s =   320.266787953 (Ang^2)
                    acos^2 =   318.310030451 (Ang^2)
 Time for wannierise           46.096 (sec)

 Writing checkpoint file 1Fe_Nbconf.up.chk... done

 *---------------------------------------------------------------------------*
 |                               PLOTTING                                    |
 *---------------------------------------------------------------------------*
 
   19 lattice points in Wigner-Seitz supercell:

      vector  -2  -2   0   degeneracy:  2
      vector  -2  -1   0   degeneracy:  1
      vector  -2   0   0   degeneracy:  2
      vector  -1  -2   0   degeneracy:  1
      vector  -1  -1   0   degeneracy:  1
      vector  -1   0   0   degeneracy:  1
      vector  -1   1   0   degeneracy:  1
      vector   0  -2   0   degeneracy:  2
      vector   0  -1   0   degeneracy:  1
      vector   0   0   0   degeneracy:  1
      vector   0   1   0   degeneracy:  1
      vector   0   2   0   degeneracy:  2
      vector   1  -1   0   degeneracy:  1
      vector   1   0   0   degeneracy:  1
      vector   1   1   0   degeneracy:  1
      vector   1   2   0   degeneracy:  1
      vector   2   0   0   degeneracy:  2
      vector   2   1   0   degeneracy:  1
      vector   2   2   0   degeneracy:  2
  tot =       16.000
  mp_grid product =           16
 
 Calculating interpolated band-structure
 
 Time to calculate interpolated band structure      23.263 (sec)
 
 Time for plotting             26.658 (sec)
 Total Execution Time        1025.432 (sec)

 *===========================================================================*
 |                             TIMING INFORMATION                            |
 *===========================================================================*
 |    Tag                                                Ncalls      Time (s)|
 |---------------------------------------------------------------------------|
 |kmesh: get                                        :         1         0.032|
 |overlap: allocate                                 :         1         0.005|
 |overlap: read                                     :         1        62.232|
 |dis: main                                         :         1       890.300|
 |wann: main                                        :         1        46.096|
 |plot: main                                        :         1        26.657|
 *---------------------------------------------------------------------------*
 
 All done: wannier90 exiting
