 written on 24Jul2023 at 10:58:58 
         186
           1
    1
    0    0    0    1    1   -3.236039    0.000000
    0    0    0    2    1    0.124961   -0.000000
    0    0    0    3    1   -0.093755    0.000000
    0    0    0    4    1   -0.062419    0.000000
    0    0    0    5    1    0.154853    0.000000
    0    0    0    6    1    0.043585    0.000000
    0    0    0    7    1   -0.063388   -0.000000
    0    0    0    8    1    0.186511    0.000000
    0    0    0    9    1   -0.493676   -0.000000
    0    0    0   10    1   -0.146305   -0.000000
    0    0    0   11    1   -0.000760    0.000000
    0    0    0   12    1   -0.035869    0.000000
    0    0    0   13    1    0.026295    0.000000
    0    0    0   14    1   -0.004336    0.000000
    0    0    0   15    1    0.003755   -0.000000
    0    0    0   16    1    0.002681   -0.000000
    0    0    0   17    1   -0.010752   -0.000000
    0    0    0   18    1    0.007729    0.000000
    0    0    0   19    1   -0.019950   -0.000000
    0    0    0   20    1   -0.015239   -0.000000
    0    0    0   21    1    0.016573   -0.000000
    0    0    0   22    1    0.020861    0.000000
    0    0    0   23    1    0.033015   -0.000000
    0    0    0   24    1    0.005333    0.000000
    0    0    0   25    1   -0.006514    0.000000
    0    0    0   26    1    0.001605    0.000000
    0    0    0   27    1    0.004931   -0.000000
    0    0    0   28    1    0.018270   -0.000000
    0    0    0   29    1   -0.007729   -0.000000
    0    0    0   30    1    0.015376    0.000000
    0    0    0   31    1   -0.004027    0.000000
    0    0    0   32    1    0.000783   -0.000000
    0    0    0   33    1    0.001095   -0.000000
    0    0    0   34    1   -0.009099    0.000000
    0    0    0   35    1   -0.002634    0.000000
    0    0    0   36    1   -0.021242    0.000000
    0    0    0   37    1    0.011459   -0.000000
    0    0    0   38    1    0.001505   -0.000000
    0    0    0   39    1    0.005047   -0.000000
    0    0    0   40    1    0.018307   -0.000000
    0    0    0   41    1   -0.012361   -0.000000
    0    0    0   42    1   -0.020332    0.000000
    0    0    0   43    1   -0.003509   -0.000000
    0    0    0   44    1    0.003946    0.000000
    0    0    0   45    1    0.058912   -0.000000
    0    0    0   46    1    0.251253   -0.000000
    0    0    0   47    1    0.149870   -0.000000
    0    0    0   48    1    0.166543    0.000000
    0    0    0   49    1    0.015334   -0.000000
    0    0    0   50    1   -0.726114   -0.000000
    0    0    0   51    1    0.199855    0.000000
    0    0    0   52    1   -0.331697    0.000000
    0    0    0   53    1    0.183518   -0.000000
    0    0    0   54    1    0.052392    0.000000
    0    0    0   55    1    0.653314   -0.000000
    0    0    0   56    1   -0.016781   -0.000000
    0    0    0   57    1   -0.011360   -0.000000
    0    0    0   58    1    0.005433    0.000000
    0    0    0   59    1    0.019564    0.000000
    0    0    0   60    1   -0.000666    0.000000
    0    0    0   61    1   -0.005343   -0.000000
    0    0    0   62    1   -0.022395    0.000000
    0    0    0   63    1    0.000881    0.000000
    0    0    0   64    1   -0.021195   -0.000000
    0    0    0   65    1   -0.006158   -0.000000
    0    0    0   66    1    0.090037   -0.000000
    0    0    0   67    1    0.118103    0.000000
    0    0    0   68    1    0.046360    0.000000
    0    0    0   69    1   -0.016993   -0.000000
    0    0    0   70    1   -0.054370   -0.000000
    0    0    0   71    1    0.189439   -0.000000
    0    0    0   72    1   -0.137180    0.000000
    0    0    0   73    1   -0.302991   -0.000000
    0    0    0   74    1    0.685884    0.000000
    0    0    0   75    1   -0.036197    0.000000
    0    0    0   76    1   -0.015208   -0.000000
    0    0    0   77    1   -0.010965   -0.000000
    0    0    0   78    1    0.025313   -0.000000
    0    0    0   79    1   -0.030837   -0.000000
    0    0    0   80    1   -0.016257    0.000000
    0    0    0   81    1   -0.003432   -0.000000
    0    0    0   82    1    0.015107    0.000000
    0    0    0   83    1    0.003363    0.000000
    0    0    0   84    1   -0.003852   -0.000000
    0    0    0   85    1    0.036343    0.000000
    0    0    0   86    1    0.018437   -0.000000
    0    0    0   87    1    0.000498    0.000000
    0    0    0   88    1   -0.032729   -0.000000
    0    0    0   89    1    0.026643    0.000000
    0    0    0   90    1   -0.008750   -0.000000
    0    0    0   91    1   -0.016776   -0.000000
    0    0    0   92    1    0.018157    0.000000
    0    0    0   93    1   -0.003861   -0.000000
    0    0    0   94    1   -0.001772    0.000000
    0    0    0   95    1    0.002311   -0.000000
    0    0    0   96    1    0.008460    0.000000
    0    0    0   97    1   -0.001071   -0.000000
    0    0    0   98    1   -0.015506    0.000000
    0    0    0   99    1    0.004033    0.000000
    0    0    0  100    1   -0.011659   -0.000000
    0    0    0  101    1   -0.001248   -0.000000
    0    0    0  102    1   -0.008211    0.000000
    0    0    0  103    1    0.009059   -0.000000
    0    0    0  104    1    0.008961   -0.000000
    0    0    0  105    1    0.006789   -0.000000
    0    0    0  106    1    0.000959    0.000000
    0    0    0  107    1    0.006476    0.000000
    0    0    0  108    1    0.036489   -0.000000
    0    0    0  109    1   -0.013938   -0.000000
    0    0    0  110    1    0.012884    0.000000
    0    0    0  111    1   -0.001430    0.000000
    0    0    0  112    1    0.025989   -0.000000
    0    0    0  113    1   -0.024082    0.000000
    0    0    0  114    1    0.016973    0.000000
    0    0    0  115    1    0.007493    0.000000
    0    0    0  116    1   -0.006849    0.000000
    0    0    0  117    1   -0.011746    0.000000
    0    0    0  118    1    0.001537    0.000000
    0    0    0  119    1   -0.003226    0.000000
    0    0    0  120    1   -0.006569    0.000000
    0    0    0  121    1   -0.000058   -0.000000
    0    0    0  122    1   -0.021060   -0.000000
    0    0    0  123    1   -0.007804   -0.000000
    0    0    0  124    1   -0.005652   -0.000000
    0    0    0  125    1    0.006737   -0.000000
    0    0    0  126    1   -0.006996    0.000000
    0    0    0  127    1   -0.030148    0.000000
    0    0    0  128    1    0.011439   -0.000000
    0    0    0  129    1   -0.010810   -0.000000
    0    0    0  130    1    0.007075    0.000000
    0    0    0  131    1   -0.020673   -0.000000
    0    0    0  132    1   -0.000979   -0.000000
    0    0    0  133    1    0.034179   -0.000000
    0    0    0  134    1    0.032549   -0.000000
    0    0    0  135    1    0.014586   -0.000000
    0    0    0  136    1    0.087378    0.000000
    0    0    0  137    1    0.088285   -0.000000
    0    0    0  138    1    0.033860   -0.000000
    0    0    0  139    1   -0.137165    0.000000
    0    0    0  140    1    0.010862    0.000000
    0    0    0  141    1    0.116794   -0.000000
    0    0    0  142    1    0.324430   -0.000000
    0    0    0  143    1   -0.008131   -0.000000
    0    0    0  144    1   -0.641503    0.000000
    0    0    0  145    1    0.050236   -0.000000
    0    0    0  146    1    0.002588   -0.000000
    0    0    0  147    1    0.005393    0.000000
    0    0    0  148    1   -0.011756    0.000000
    0    0    0  149    1   -0.070835    0.000000
    0    0    0  150    1    0.054442   -0.000000
    0    0    0  151    1    0.002123    0.000000
    0    0    0  152    1    0.017168   -0.000000
    0    0    0  153    1    0.010485   -0.000000
    0    0    0  154    1   -0.001876    0.000000
    0    0    0  155    1    0.003225    0.000000
    0    0    0  156    1   -0.003986    0.000000
    0    0    0  157    1    0.071009    0.000000
    0    0    0  158    1   -0.063140   -0.000000
    0    0    0  159    1   -0.053902    0.000000
    0    0    0  160    1   -0.088728    0.000000
    0    0    0  161    1   -0.091435   -0.000000
    0    0    0  162    1   -0.052158   -0.000000
    0    0    0  163    1   -0.108192    0.000000
    0    0    0  164    1    0.082672   -0.000000
    0    0    0  165    1   -0.025409    0.000000
    0    0    0  166    1    0.125175   -0.000000
    0    0    0  167    1    1.120002    0.000000
    0    0    0  168    1    0.062465    0.000000
    0    0    0  169    1    0.072224    0.000000
    0    0    0  170    1    0.023568   -0.000000
    0    0    0  171    1    0.086370    0.000000
    0    0    0  172    1   -0.003300   -0.000000
    0    0    0  173    1   -0.034873    0.000000
    0    0    0  174    1    0.074755   -0.000000
    0    0    0  175    1    0.053655    0.000000
    0    0    0  176    1   -0.000984    0.000000
    0    0    0  177    1   -0.042525   -0.000000
    0    0    0  178    1   -0.009709   -0.000000
    0    0    0  179    1   -0.019163   -0.000000
    0    0    0  180    1   -0.082396    0.000000
    0    0    0  181    1   -0.147325    0.000000
    0    0    0  182    1   -0.106307    0.000000
    0    0    0  183    1   -0.061640   -0.000000
    0    0    0  184    1    0.454189    0.000000
    0    0    0  185    1    0.665708   -0.000000
    0    0    0  186    1    0.133459    0.000000
    0    0    0    1    2    0.124961    0.000000
    0    0    0    2    2   -3.772531    0.000000
    0    0    0    3    2   -0.028978   -0.000000
    0    0    0    4    2   -0.121548   -0.000000
    0    0    0    5    2    0.296243   -0.000000
    0    0    0    6    2   -0.001062    0.000000
    0    0    0    7    2   -0.088995    0.000000
    0    0    0    8    2   -0.211864    0.000000
    0    0    0    9    2   -0.266991    0.000000
    0    0    0   10    2   -0.054299   -0.000000
    0    0    0   11    2   -0.003183    0.000000
    0    0    0   12    2   -0.006694   -0.000000
    0    0    0   13    2    0.007113   -0.000000
    0    0    0   14    2    0.001781    0.000000
    0    0    0   15    2   -0.008890   -0.000000
    0    0    0   16    2   -0.000302   -0.000000
    0    0    0   17    2   -0.010868    0.000000
    0    0    0   18    2   -0.007468   -0.000000
    0    0    0   19    2   -0.015755    0.000000
    0    0    0   20    2    0.025160   -0.000000
    0    0    0   21    2   -0.020130    0.000000
    0    0    0   22    2    0.028229   -0.000000
    0    0    0   23    2    0.004853   -0.000000
    0    0    0   24    2    0.011250   -0.000000
    0    0    0   25    2   -0.041568   -0.000000
    0    0    0   26    2    0.012734    0.000000
    0    0    0   27    2   -0.005353    0.000000
    0    0    0   28    2   -0.013118   -0.000000
    0    0    0   29    2    0.003300    0.000000
    0    0    0   30    2    0.008513   -0.000000
    0    0    0   31    2    0.009000   -0.000000
    0    0    0   32    2   -0.013398    0.000000
    0    0    0   33    2   -0.001642    0.000000
    0    0    0   34    2    0.005443   -0.000000
    0    0    0   35    2    0.003597   -0.000000
    0    0    0   36    2    0.002498   -0.000000
    0    0    0   37    2   -0.051192    0.000000
    0    0    0   38    2    0.017862   -0.000000
    0    0    0   39    2    0.008133    0.000000
    0    0    0   40    2   -0.017189    0.000000
    0    0    0   41    2   -0.008648   -0.000000
    0    0    0   42    2    0.003831    0.000000
    0    0    0   43    2   -0.009458   -0.000000
    0    0    0   44    2   -0.003478   -0.000000
    0    0    0   45    2    0.004081    0.000000
    0    0    0   46    2    0.081970    0.000000
    0    0    0   47    2   -0.299698    0.000000
    0    0    0   48    2   -0.153248   -0.000000
    0    0    0   49    2   -0.044344   -0.000000
    0    0    0   50    2    0.444754   -0.000000
    0    0    0   51    2   -0.085701    0.000000
    0    0    0   52    2   -0.303622   -0.000000
    0    0    0   53    2    0.164047    0.000000
    0    0    0   54    2    0.053018    0.000000
    0    0    0   55    2    0.301974    0.000000
    0    0    0   56    2    0.001974    0.000000
    0    0    0   57    2    0.000351    0.000000
    0    0    0   58    2    0.011677   -0.000000
    0    0    0   59    2   -0.006780    0.000000
    0    0    0   60    2    0.016827   -0.000000
    0    0    0   61    2   -0.006682    0.000000
    0    0    0   62    2   -0.024767   -0.000000
    0    0    0   63    2    0.000557   -0.000000
    0    0    0   64    2   -0.000200    0.000000
    0    0    0   65    2   -0.001571    0.000000
    0    0    0   66    2    0.054983   -0.000000
    0    0    0   67    2    0.088133   -0.000000
    0    0    0   68    2   -0.038036    0.000000
    0    0    0   69    2   -0.012614    0.000000
    0    0    0   70    2    0.050604   -0.000000
    0    0    0   71    2   -0.042868   -0.000000
    0    0    0   72    2    0.006625   -0.000000
    0    0    0   73    2   -0.034363   -0.000000
    0    0    0   74    2    0.004636    0.000000
    0    0    0   75    2    0.188583    0.000000
    0    0    0   76    2   -0.017360   -0.000000
    0    0    0   77    2   -0.003821    0.000000
    0    0    0   78    2   -0.001991   -0.000000
    0    0    0   79    2    0.016344    0.000000
    0    0    0   80    2   -0.013643    0.000000
    0    0    0   81    2    0.017133   -0.000000
    0    0    0   82    2    0.011850   -0.000000
    0    0    0   83    2    0.006460   -0.000000
    0    0    0   84    2    0.005426    0.000000
    0    0    0   85    2   -0.010648    0.000000
    0    0    0   86    2   -0.061368    0.000000
    0    0    0   87    2    0.080232    0.000000
    0    0    0   88    2    0.010676   -0.000000
    0    0    0   89    2    0.012497    0.000000
    0    0    0   90    2    0.036292    0.000000
    0    0    0   91    2    0.004262   -0.000000
    0    0    0   92    2    0.006279   -0.000000
    0    0    0   93    2    0.000146    0.000000
    0    0    0   94    2   -0.006504   -0.000000
    0    0    0   95    2    0.001147    0.000000
    0    0    0   96    2    0.005371   -0.000000
    0    0    0   97    2   -0.010914    0.000000
    0    0    0   98    2   -0.001464   -0.000000
    0    0    0   99    2   -0.001696    0.000000
    0    0    0  100    2    0.006581   -0.000000
    0    0    0  101    2   -0.005531    0.000000
    0    0    0  102    2    0.020161   -0.000000
    0    0    0  103    2    0.002999   -0.000000
    0    0    0  104    2   -0.009892    0.000000
    0    0    0  105    2    0.003027    0.000000
    0    0    0  106    2   -0.007262   -0.000000
    0    0    0  107    2   -0.003580    0.000000
    0    0    0  108    2   -0.001793   -0.000000
    0    0    0  109    2   -0.004453   -0.000000
    0    0    0  110    2    0.008890   -0.000000
    0    0    0  111    2    0.002073    0.000000
    0    0    0  112    2   -0.000629    0.000000
    0    0    0  113    2   -0.004353   -0.000000
    0    0    0  114    2    0.008196   -0.000000
    0    0    0  115    2   -0.006926    0.000000
    0    0    0  116    2    0.008408   -0.000000
    0    0    0  117    2    0.009802    0.000000
    0    0    0  118    2   -0.022568    0.000000
    0    0    0  119    2    0.002090    0.000000
    0    0    0  120    2   -0.017871    0.000000
    0    0    0  121    2   -0.017308   -0.000000
    0    0    0  122    2    0.009325   -0.000000
    0    0    0  123    2    0.015769    0.000000
    0    0    0  124    2   -0.032542   -0.000000
    0    0    0  125    2   -0.038300    0.000000
    0    0    0  126    2   -0.007792   -0.000000
    0    0    0  127    2    0.000033   -0.000000
    0    0    0  128    2   -0.001844   -0.000000
    0    0    0  129    2   -0.009086    0.000000
    0    0    0  130    2    0.003307    0.000000
    0    0    0  131    2   -0.011681   -0.000000
    0    0    0  132    2    0.000157   -0.000000
    0    0    0  133    2   -0.031108    0.000000
    0    0    0  134    2    0.038045   -0.000000
    0    0    0  135    2    0.000539    0.000000
    0    0    0  136    2    0.018473    0.000000
    0    0    0  137    2    0.017350   -0.000000
    0    0    0  138    2   -0.029911    0.000000
    0    0    0  139    2    0.022898    0.000000
    0    0    0  140    2    0.099625   -0.000000
    0    0    0  141    2   -0.003013    0.000000
    0    0    0  142    2    0.023445    0.000000
    0    0    0  143    2   -0.145657    0.000000
    0    0    0  144    2    0.086071    0.000000
    0    0    0  145    2    0.018922    0.000000
    0    0    0  146    2    0.027770    0.000000
    0    0    0  147    2    0.000213   -0.000000
    0    0    0  148    2    0.082721    0.000000
    0    0    0  149    2    0.040647   -0.000000
    0    0    0  150    2   -0.025374    0.000000
    0    0    0  151    2   -0.001164   -0.000000
    0    0    0  152    2   -0.012781   -0.000000
    0    0    0  153    2   -0.005832    0.000000
    0    0    0  154    2   -0.012636    0.000000
    0    0    0  155    2   -0.006471   -0.000000
    0    0    0  156    2    0.002328   -0.000000
    0    0    0  157    2    0.018600   -0.000000
    0    0    0  158    2   -0.002325    0.000000
    0    0    0  159    2   -0.014402    0.000000
    0    0    0  160    2    0.116084   -0.000000
    0    0    0  161    2   -0.067797    0.000000
    0    0    0  162    2    0.010607   -0.000000
    0    0    0  163    2   -0.032229    0.000000
    0    0    0  164    2   -0.024010    0.000000
    0    0    0  165    2    0.067222    0.000000
    0    0    0  166    2   -0.721832    0.000000
    0    0    0  167    2    0.359708    0.000000
    0    0    0  168    2    0.616795    0.000000
    0    0    0  169    2    0.019745    0.000000
    0    0    0  170    2    0.013251   -0.000000
    0    0    0  171    2    0.022795    0.000000
    0    0    0  172    2    0.037481    0.000000
    0    0    0  173    2   -0.025221    0.000000
    0    0    0  174    2    0.056860    0.000000
    0    0    0  175    2   -0.008565    0.000000
    0    0    0  176    2    0.026145   -0.000000
    0    0    0  177    2   -0.013134    0.000000
    0    0    0  178    2   -0.001705   -0.000000
    0    0    0  179    2   -0.027816    0.000000
    0    0    0  180    2   -0.015638   -0.000000
    0    0    0  181    2    0.017254   -0.000000
    0    0    0  182    2   -0.034977   -0.000000
    0    0    0  183    2   -0.052231   -0.000000
    0    0    0  184    2    0.896903    0.000000
    0    0    0  185    2   -0.502724    0.000000
    0    0    0  186    2   -0.110748    0.000000
    0    0    0    1    3   -0.093755   -0.000000
    0    0    0    2    3   -0.028978    0.000000
    0    0    0    3    3   -3.924476   -0.000000
    0    0    0    4    3    0.160671   -0.000000
    0    0    0    5    3   -0.021713    0.000000
    0    0    0    6    3    0.022976   -0.000000
    0    0    0    7    3    0.107525   -0.000000
    0    0    0    8    3    0.012591   -0.000000
    0    0    0    9    3    0.036214   -0.000000
    0    0    0   10    3    0.030155    0.000000
    0    0    0   11    3    0.004777   -0.000000
    0    0    0   12    3    0.001903    0.000000
    0    0    0   13    3   -0.000673   -0.000000
    0    0    0   14    3   -0.011933   -0.000000
    0    0    0   15    3    0.002716   -0.000000
    0    0    0   16    3   -0.009331    0.000000
    0    0    0   17    3    0.009846    0.000000
    0    0    0   18    3    0.010548    0.000000
    0    0    0   19    3   -0.006448    0.000000
    0    0    0   20    3   -0.002199   -0.000000
    0    0    0   21    3    0.039829   -0.000000
    0    0    0   22    3   -0.003310    0.000000
    0    0    0   23    3    0.094925    0.000000
    0    0    0   24    3    0.068647    0.000000
    0    0    0   25    3   -0.004809    0.000000
    0    0    0   26    3   -0.016722   -0.000000
    0    0    0   27    3   -0.005097    0.000000
    0    0    0   28    3    0.038972    0.000000
    0    0    0   29    3    0.001547   -0.000000
    0    0    0   30    3    0.009338    0.000000
    0    0    0   31    3   -0.001875    0.000000
    0    0    0   32    3    0.000147   -0.000000
    0    0    0   33    3   -0.012404   -0.000000
    0    0    0   34    3   -0.006139   -0.000000
    0    0    0   35    3   -0.006442    0.000000
    0    0    0   36    3    0.000322    0.000000
    0    0    0   37    3    0.022482   -0.000000
    0    0    0   38    3   -0.029922   -0.000000
    0    0    0   39    3   -0.010030   -0.000000
    0    0    0   40    3    0.010981   -0.000000
    0    0    0   41    3    0.029956    0.000000
    0    0    0   42    3   -0.006811    0.000000
    0    0    0   43    3   -0.006328    0.000000
    0    0    0   44    3    0.015594    0.000000
    0    0    0   45    3    0.036256   -0.000000
    0    0    0   46    3    0.045681   -0.000000
    0    0    0   47    3   -0.229898    0.000000
    0    0    0   48    3   -0.136550    0.000000
    0    0    0   49    3    0.218080    0.000000
    0    0    0   50    3    0.194747   -0.000000
    0    0    0   51    3   -0.010084    0.000000
    0    0    0   52    3    0.267415    0.000000
    0    0    0   53    3   -0.098482   -0.000000
    0    0    0   54    3    0.188809    0.000000
    0    0    0   55    3   -0.162262    0.000000
    0    0    0   56    3    0.015789    0.000000
    0    0    0   57    3    0.001729    0.000000
    0    0    0   58    3   -0.005401    0.000000
    0    0    0   59    3    0.007887   -0.000000
    0    0    0   60    3   -0.026864    0.000000
    0    0    0   61    3    0.003157    0.000000
    0    0    0   62    3    0.005580    0.000000
    0    0    0   63    3   -0.012723   -0.000000
    0    0    0   64    3   -0.002445    0.000000
    0    0    0   65    3   -0.004757   -0.000000
    0    0    0   66    3   -0.014078    0.000000
    0    0    0   67    3   -0.000057   -0.000000
    0    0    0   68    3    0.021773    0.000000
    0    0    0   69    3   -0.055408   -0.000000
    0    0    0   70    3   -0.034965    0.000000
    0    0    0   71    3   -0.117744    0.000000
    0    0    0   72    3   -0.129617   -0.000000
    0    0    0   73    3   -0.548484    0.000000
    0    0    0   74    3    0.409015    0.000000
    0    0    0   75    3    0.006243   -0.000000
    0    0    0   76    3   -0.002993    0.000000
    0    0    0   77    3   -0.007227    0.000000
    0    0    0   78    3    0.001276    0.000000
    0    0    0   79    3    0.019916   -0.000000
    0    0    0   80    3   -0.002218   -0.000000
    0    0    0   81    3   -0.009352    0.000000
    0    0    0   82    3    0.005748    0.000000
    0    0    0   83    3   -0.004500    0.000000
    0    0    0   84    3    0.004110   -0.000000
    0    0    0   85    3    0.014151   -0.000000
    0    0    0   86    3   -0.022015    0.000000
    0    0    0   87    3    0.031733    0.000000
    0    0    0   88    3    0.037910    0.000000
    0    0    0   89    3   -0.016116   -0.000000
    0    0    0   90    3    0.048177    0.000000
    0    0    0   91    3    0.003861    0.000000
    0    0    0   92    3   -0.004699   -0.000000
    0    0    0   93    3    0.003230   -0.000000
    0    0    0   94    3   -0.007162   -0.000000
    0    0    0   95    3    0.005045   -0.000000
    0    0    0   96    3   -0.007942    0.000000
    0    0    0   97    3    0.007239    0.000000
    0    0    0   98    3   -0.003830    0.000000
    0    0    0   99    3    0.010721    0.000000
    0    0    0  100    3    0.032042    0.000000
    0    0    0  101    3    0.010580   -0.000000
    0    0    0  102    3   -0.022343   -0.000000
    0    0    0  103    3    0.009472    0.000000
    0    0    0  104    3    0.008548   -0.000000
    0    0    0  105    3    0.014403    0.000000
    0    0    0  106    3    0.033673    0.000000
    0    0    0  107    3   -0.015251   -0.000000
    0    0    0  108    3   -0.015736   -0.000000
    0    0    0  109    3    0.002638   -0.000000
    0    0    0  110    3   -0.003148   -0.000000
    0    0    0  111    3    0.002524   -0.000000
    0    0    0  112    3    0.002874   -0.000000
    0    0    0  113    3    0.003546    0.000000
    0    0    0  114    3   -0.007453    0.000000
    0    0    0  115    3   -0.006673   -0.000000
    0    0    0  116    3    0.005552    0.000000
    0    0    0  117    3    0.004911   -0.000000
    0    0    0  118    3   -0.009605   -0.000000
    0    0    0  119    3   -0.003211   -0.000000
    0    0    0  120    3   -0.008455   -0.000000
    0    0    0  121    3    0.003058   -0.000000
    0    0    0  122    3    0.005613    0.000000
    0    0    0  123    3   -0.004547    0.000000
    0    0    0  124    3   -0.015260    0.000000
    0    0    0  125    3   -0.013873   -0.000000
    0    0    0  126    3    0.002958    0.000000
    0    0    0  127    3   -0.008645    0.000000
    0    0    0  128    3    0.003769   -0.000000
    0    0    0  129    3    0.005243    0.000000
    0    0    0  130    3    0.006441    0.000000
    0    0    0  131    3    0.006729    0.000000
    0    0    0  132    3    0.004506   -0.000000
    0    0    0  133    3    0.001599   -0.000000
    0    0    0  134    3    0.004373    0.000000
    0    0    0  135    3    0.025785    0.000000
    0    0    0  136    3   -0.113894    0.000000
    0    0    0  137    3   -0.004335    0.000000
    0    0    0  138    3   -0.042102   -0.000000
    0    0    0  139    3   -0.022497   -0.000000
    0    0    0  140    3   -0.011671   -0.000000
    0    0    0  141    3   -0.066877    0.000000
    0    0    0  142    3   -1.106640   -0.000000
    0    0    0  143    3   -0.012581   -0.000000
    0    0    0  144    3   -0.285206   -0.000000
    0    0    0  145    3   -0.009712   -0.000000
    0    0    0  146    3   -0.004734   -0.000000
    0    0    0  147    3    0.026092    0.000000
    0    0    0  148    3   -0.052955   -0.000000
    0    0    0  149    3   -0.001701    0.000000
    0    0    0  150    3    0.003530    0.000000
    0    0    0  151    3    0.001989   -0.000000
    0    0    0  152    3    0.002594   -0.000000
    0    0    0  153    3   -0.003871   -0.000000
    0    0    0  154    3    0.008705   -0.000000
    0    0    0  155    3   -0.000466    0.000000
    0    0    0  156    3   -0.012123   -0.000000
    0    0    0  157    3    0.001678    0.000000
    0    0    0  158    3    0.005076    0.000000
    0    0    0  159    3   -0.000314    0.000000
    0    0    0  160    3   -0.068051    0.000000
    0    0    0  161    3    0.025389   -0.000000
    0    0    0  162    3    0.016294    0.000000
    0    0    0  163    3    0.004220   -0.000000
    0    0    0  164    3    0.063450    0.000000
    0    0    0  165    3    0.058467   -0.000000
    0    0    0  166    3    0.357476   -0.000000
    0    0    0  167    3   -0.267359   -0.000000
    0    0    0  168    3   -0.307613   -0.000000
    0    0    0  169    3   -0.020766   -0.000000
    0    0    0  170    3   -0.011796   -0.000000
    0    0    0  171    3   -0.015081   -0.000000
    0    0    0  172    3   -0.006247   -0.000000
    0    0    0  173    3    0.007932    0.000000
    0    0    0  174    3   -0.035999    0.000000
    0    0    0  175    3    0.022478   -0.000000
    0    0    0  176    3   -0.003227   -0.000000
    0    0    0  177    3    0.056291   -0.000000
    0    0    0  178    3    0.104600   -0.000000
    0    0    0  179    3    0.007815    0.000000
    0    0    0  180    3   -0.015052   -0.000000
    0    0    0  181    3    0.014306    0.000000
    0    0    0  182    3   -0.056245    0.000000
    0    0    0  183    3    0.040790    0.000000
    0    0    0  184    3    0.495631   -0.000000
    0    0    0  185    3   -0.221137   -0.000000
    0    0    0  186    3   -0.092781    0.000000
    0    0    0    1    4   -0.062419   -0.000000
    0    0    0    2    4   -0.121548    0.000000
    0    0    0    3    4    0.160671    0.000000
    0    0    0    4    4   -3.284128   -0.000000
    0    0    0    5    4   -0.084577   -0.000000
    0    0    0    6    4   -0.058424   -0.000000
    0    0    0    7    4    0.014950   -0.000000
    0    0    0    8    4   -0.160324   -0.000000
    0    0    0    9    4    0.265218    0.000000
    0    0    0   10    4    0.238675    0.000000
    0    0    0   11    4   -0.004708   -0.000000
    0    0    0   12    4    0.000902   -0.000000
    0    0    0   13    4   -0.004095   -0.000000
    0    0    0   14    4    0.013264    0.000000
    0    0    0   15    4   -0.004319    0.000000
    0    0    0   16    4    0.016414   -0.000000
    0    0    0   17    4   -0.011732   -0.000000
    0    0    0   18    4   -0.011998   -0.000000
    0    0    0   19    4   -0.001685    0.000000
    0    0    0   20    4    0.007638   -0.000000
    0    0    0   21    4    0.077489    0.000000
    0    0    0   22    4   -0.011229   -0.000000
    0    0    0   23    4   -0.017818   -0.000000
    0    0    0   24    4    0.029520   -0.000000
    0    0    0   25    4   -0.002313    0.000000
    0    0    0   26    4    0.014787    0.000000
    0    0    0   27    4    0.019421    0.000000
    0    0    0   28    4   -0.027926   -0.000000
    0    0    0   29    4   -0.002452    0.000000
    0    0    0   30    4   -0.013356   -0.000000
    0    0    0   31    4   -0.007490    0.000000
    0    0    0   32    4   -0.019999    0.000000
    0    0    0   33    4   -0.006495    0.000000
    0    0    0   34    4   -0.001732   -0.000000
    0    0    0   35    4    0.009388   -0.000000
    0    0    0   36    4    0.026739   -0.000000
    0    0    0   37    4   -0.012538   -0.000000
    0    0    0   38    4    0.036755   -0.000000
    0    0    0   39    4    0.005289    0.000000
    0    0    0   40    4   -0.021865    0.000000
    0    0    0   41    4   -0.023794    0.000000
    0    0    0   42    4   -0.008363   -0.000000
    0    0    0   43    4   -0.012225   -0.000000
    0    0    0   44    4    0.000071   -0.000000
    0    0    0   45    4   -0.041464    0.000000
    0    0    0   46    4   -0.037248    0.000000
    0    0    0   47    4    0.154654   -0.000000
    0    0    0   48    4   -0.028727    0.000000
    0    0    0   49    4   -0.050935   -0.000000
    0    0    0   50    4    0.073420    0.000000
    0    0    0   51    4   -0.288357   -0.000000
    0    0    0   52    4   -0.463536   -0.000000
    0    0    0   53    4    0.112197   -0.000000
    0    0    0   54    4   -0.117726   -0.000000
    0    0    0   55    4    0.076779   -0.000000
    0    0    0   56    4   -0.015526   -0.000000
    0    0    0   57    4    0.015663    0.000000
    0    0    0   58    4   -0.009228    0.000000
    0    0    0   59    4    0.008269    0.000000
    0    0    0   60    4    0.006659   -0.000000
    0    0    0   61    4   -0.009618    0.000000
    0    0    0   62    4    0.013534    0.000000
    0    0    0   63    4   -0.015027   -0.000000
    0    0    0   64    4   -0.000346   -0.000000
    0    0    0   65    4    0.003153   -0.000000
    0    0    0   66    4   -0.135554    0.000000
    0    0    0   67    4    0.127915   -0.000000
    0    0    0   68    4   -0.146036   -0.000000
    0    0    0   69    4   -0.018701    0.000000
    0    0    0   70    4    0.053120    0.000000
    0    0    0   71    4    0.490384    0.000000
    0    0    0   72    4    0.245424   -0.000000
    0    0    0   73    4    0.632180    0.000000
    0    0    0   74    4   -0.107513   -0.000000
    0    0    0   75    4    0.040671    0.000000
    0    0    0   76    4   -0.009435   -0.000000
    0    0    0   77    4    0.009059    0.000000
    0    0    0   78    4   -0.008569    0.000000
    0    0    0   79    4    0.011260    0.000000
    0    0    0   80    4    0.006882   -0.000000
    0    0    0   81    4   -0.002757   -0.000000
    0    0    0   82    4   -0.005581   -0.000000
    0    0    0   83    4   -0.012997   -0.000000
    0    0    0   84    4    0.004782    0.000000
    0    0    0   85    4   -0.028717   -0.000000
    0    0    0   86    4    0.009861   -0.000000
    0    0    0   87    4   -0.024657    0.000000
    0    0    0   88    4    0.059398   -0.000000
    0    0    0   89    4   -0.061849   -0.000000
    0    0    0   90    4    0.033684   -0.000000
    0    0    0   91    4    0.000795   -0.000000
    0    0    0   92    4    0.003604    0.000000
    0    0    0   93    4   -0.007455    0.000000
    0    0    0   94    4    0.002620   -0.000000
    0    0    0   95    4   -0.016266   -0.000000
    0    0    0   96    4    0.022368    0.000000
    0    0    0   97    4    0.018020    0.000000
    0    0    0   98    4    0.004283    0.000000
    0    0    0   99    4    0.006684   -0.000000
    0    0    0  100    4   -0.005788    0.000000
    0    0    0  101    4    0.046198   -0.000000
    0    0    0  102    4   -0.059315   -0.000000
    0    0    0  103    4    0.009573   -0.000000
    0    0    0  104    4   -0.004938    0.000000
    0    0    0  105    4   -0.000743    0.000000
    0    0    0  106    4   -0.023533   -0.000000
    0    0    0  107    4   -0.034357   -0.000000
    0    0    0  108    4   -0.029580   -0.000000
    0    0    0  109    4    0.006306    0.000000
    0    0    0  110    4   -0.000788   -0.000000
    0    0    0  111    4   -0.005182    0.000000
    0    0    0  112    4   -0.004016    0.000000
    0    0    0  113    4    0.012394    0.000000
    0    0    0  114    4    0.020543   -0.000000
    0    0    0  115    4   -0.016771    0.000000
    0    0    0  116    4    0.014877    0.000000
    0    0    0  117    4   -0.003637    0.000000
    0    0    0  118    4   -0.018358    0.000000
    0    0    0  119    4   -0.049109   -0.000000
    0    0    0  120    4   -0.073206    0.000000
    0    0    0  121    4    0.012233   -0.000000
    0    0    0  122    4    0.008534   -0.000000
    0    0    0  123    4   -0.005357    0.000000
    0    0    0  124    4    0.007656    0.000000
    0    0    0  125    4    0.066683    0.000000
    0    0    0  126    4    0.018218    0.000000
    0    0    0  127    4    0.005421    0.000000
    0    0    0  128    4   -0.007434    0.000000
    0    0    0  129    4    0.000384    0.000000
    0    0    0  130    4   -0.014659   -0.000000
    0    0    0  131    4   -0.002746   -0.000000
    0    0    0  132    4    0.001231    0.000000
    0    0    0  133    4   -0.015898   -0.000000
    0    0    0  134    4   -0.004492    0.000000
    0    0    0  135    4   -0.014974    0.000000
    0    0    0  136    4    0.041053   -0.000000
    0    0    0  137    4    0.060427    0.000000
    0    0    0  138    4   -0.034139    0.000000
    0    0    0  139    4   -0.105637    0.000000
    0    0    0  140    4    0.026471   -0.000000
    0    0    0  141    4    0.061665    0.000000
    0    0    0  142    4   -0.030689   -0.000000
    0    0    0  143    4    0.231968    0.000000
    0    0    0  144    4   -1.245877    0.000000
    0    0    0  145    4   -0.008948    0.000000
    0    0    0  146    4    0.029814    0.000000
    0    0    0  147    4   -0.020573   -0.000000
    0    0    0  148    4    0.028809    0.000000
    0    0    0  149    4   -0.195589   -0.000000
    0    0    0  150    4    0.023619   -0.000000
    0    0    0  151    4   -0.004407    0.000000
    0    0    0  152    4   -0.006224    0.000000
    0    0    0  153    4   -0.021085   -0.000000
    0    0    0  154    4   -0.004492   -0.000000
    0    0    0  155    4   -0.005982   -0.000000
    0    0    0  156    4    0.017897    0.000000
    0    0    0  157    4   -0.027138    0.000000
    0    0    0  158    4    0.007639    0.000000
    0    0    0  159    4    0.001192    0.000000
    0    0    0  160    4    0.126423   -0.000000
    0    0    0  161    4    0.066507    0.000000
    0    0    0  162    4    0.035252    0.000000
    0    0    0  163    4   -0.009544   -0.000000
    0    0    0  164    4   -0.082123    0.000000
    0    0    0  165    4    0.005016    0.000000
    0    0    0  166    4   -0.312560    0.000000
    0    0    0  167    4   -0.002750   -0.000000
    0    0    0  168    4   -0.823323   -0.000000
    0    0    0  169    4   -0.028986    0.000000
    0    0    0  170    4   -0.002584   -0.000000
    0    0    0  171    4   -0.015064    0.000000
    0    0    0  172    4    0.016793   -0.000000
    0    0    0  173    4    0.073478    0.000000
    0    0    0  174    4   -0.167739    0.000000
    0    0    0  175    4    0.005593   -0.000000
    0    0    0  176    4    0.013356    0.000000
    0    0    0  177    4   -0.062510    0.000000
    0    0    0  178    4   -0.032164   -0.000000
    0    0    0  179    4    0.013057    0.000000
    0    0    0  180    4    0.287521    0.000000
    0    0    0  181    4    0.019147   -0.000000
    0    0    0  182    4    0.016775   -0.000000
    0    0    0  183    4   -0.018986    0.000000
    0    0    0  184    4   -0.093133   -0.000000
    0    0    0  185    4    0.010769    0.000000
    0    0    0  186    4   -1.201254    0.000000
    0    0    0    1    5    0.154853   -0.000000
    0    0    0    2    5    0.296243    0.000000
    0    0    0    3    5   -0.021713   -0.000000
    0    0    0    4    5   -0.084577    0.000000
    0    0    0    5    5   -3.248341    0.000000
    0    0    0    6    5    0.019674    0.000000
    0    0    0    7    5   -0.163912    0.000000
    0    0    0    8    5   -0.168239    0.000000
    0    0    0    9    5   -0.811659    0.000000
    0    0    0   10    5    0.165290   -0.000000
    0    0    0   11    5   -0.002428   -0.000000
    0    0    0   12    5   -0.005186   -0.000000
    0    0    0   13    5    0.003216    0.000000
    0    0    0   14    5    0.005972   -0.000000
    0    0    0   15    5    0.004208    0.000000
    0    0    0   16    5    0.006821   -0.000000
    0    0    0   17    5   -0.017015   -0.000000
    0    0    0   18    5    0.004870    0.000000
    0    0    0   19    5    0.017258   -0.000000
    0    0    0   20    5    0.005595    0.000000
    0    0    0   21    5    0.000543   -0.000000
    0    0    0   22    5    0.062163   -0.000000
    0    0    0   23    5    0.013477    0.000000
    0    0    0   24    5    0.012776    0.000000
    0    0    0   25    5   -0.049583    0.000000
    0    0    0   26    5    0.007612    0.000000
    0    0    0   27    5   -0.001450   -0.000000
    0    0    0   28    5   -0.005764   -0.000000
    0    0    0   29    5   -0.015349   -0.000000
    0    0    0   30    5   -0.006939    0.000000
    0    0    0   31    5    0.013261   -0.000000
    0    0    0   32    5    0.001862   -0.000000
    0    0    0   33    5   -0.019440    0.000000
    0    0    0   34    5    0.008949    0.000000
    0    0    0   35    5    0.002970    0.000000
    0    0    0   36    5    0.007442   -0.000000
    0    0    0   37    5   -0.043602   -0.000000
    0    0    0   38    5    0.019427   -0.000000
    0    0    0   39    5    0.006346    0.000000
    0    0    0   40    5   -0.014923   -0.000000
    0    0    0   41    5   -0.009448    0.000000
    0    0    0   42    5   -0.011673   -0.000000
    0    0    0   43    5    0.024064    0.000000
    0    0    0   44    5    0.009639    0.000000
    0    0    0   45    5    0.013481   -0.000000
    0    0    0   46    5   -0.589837    0.000000
    0    0    0   47    5    0.439865   -0.000000
    0    0    0   48    5    0.301442   -0.000000
    0    0    0   49    5   -0.080320    0.000000
    0    0    0   50    5   -0.421974   -0.000000
    0    0    0   51    5    0.336263    0.000000
    0    0    0   52    5    0.386681    0.000000
    0    0    0   53    5   -0.279332    0.000000
    0    0    0   54    5    0.073793   -0.000000
    0    0    0   55    5   -0.070434    0.000000
    0    0    0   56    5   -0.011700   -0.000000
    0    0    0   57    5   -0.004083   -0.000000
    0    0    0   58    5   -0.012100   -0.000000
    0    0    0   59    5   -0.008394    0.000000
    0    0    0   60    5   -0.005147    0.000000
    0    0    0   61    5   -0.023957   -0.000000
    0    0    0   62    5    0.021638   -0.000000
    0    0    0   63    5    0.009785    0.000000
    0    0    0   64    5   -0.015462   -0.000000
    0    0    0   65    5    0.002451   -0.000000
    0    0    0   66    5    0.153399    0.000000
    0    0    0   67    5   -0.075881    0.000000
    0    0    0   68    5    0.219703   -0.000000
    0    0    0   69    5   -0.054903   -0.000000
    0    0    0   70    5   -0.087731   -0.000000
    0    0    0   71    5    0.018496   -0.000000
    0    0    0   72    5   -0.139077   -0.000000
    0    0    0   73    5    0.115744   -0.000000
    0    0    0   74    5    0.043397    0.000000
    0    0    0   75    5   -0.086637   -0.000000
    0    0    0   76    5    0.008201   -0.000000
    0    0    0   77    5   -0.008200   -0.000000
    0    0    0   78    5   -0.011919    0.000000
    0    0    0   79    5   -0.011287    0.000000
    0    0    0   80    5    0.002447   -0.000000
    0    0    0   81    5   -0.012193   -0.000000
    0    0    0   82    5   -0.015553    0.000000
    0    0    0   83    5    0.012034   -0.000000
    0    0    0   84    5    0.000834    0.000000
    0    0    0   85    5    0.000530    0.000000
    0    0    0   86    5   -0.065652    0.000000
    0    0    0   87    5   -0.019589   -0.000000
    0    0    0   88    5   -0.036027    0.000000
    0    0    0   89    5   -0.026975   -0.000000
    0    0    0   90    5   -0.001558    0.000000
    0    0    0   91    5    0.000993    0.000000
    0    0    0   92    5    0.007567    0.000000
    0    0    0   93    5    0.002704   -0.000000
    0    0    0   94    5    0.010642    0.000000
    0    0    0   95    5    0.006176   -0.000000
    0    0    0   96    5    0.002839    0.000000
    0    0    0   97    5   -0.009843    0.000000
    0    0    0   98    5   -0.010898    0.000000
    0    0    0   99    5   -0.000297   -0.000000
    0    0    0  100    5   -0.017977    0.000000
    0    0    0  101    5   -0.021667   -0.000000
    0    0    0  102    5    0.074350    0.000000
    0    0    0  103    5    0.008853    0.000000
    0    0    0  104    5   -0.019056   -0.000000
    0    0    0  105    5    0.010820   -0.000000
    0    0    0  106    5    0.016225    0.000000
    0    0    0  107    5   -0.031102    0.000000
    0    0    0  108    5   -0.059099    0.000000
    0    0    0  109    5   -0.005800    0.000000
    0    0    0  110    5    0.000781    0.000000
    0    0    0  111    5   -0.002048   -0.000000
    0    0    0  112    5   -0.007236    0.000000
    0    0    0  113    5    0.007253   -0.000000
    0    0    0  114    5    0.028586   -0.000000
    0    0    0  115    5   -0.013028   -0.000000
    0    0    0  116    5   -0.000433   -0.000000
    0    0    0  117    5   -0.003198   -0.000000
    0    0    0  118    5    0.028151   -0.000000
    0    0    0  119    5    0.000261   -0.000000
    0    0    0  120    5   -0.045600   -0.000000
    0    0    0  121    5   -0.015657    0.000000
    0    0    0  122    5   -0.002455    0.000000
    0    0    0  123    5    0.008713   -0.000000
    0    0    0  124    5    0.001585    0.000000
    0    0    0  125    5   -0.087341    0.000000
    0    0    0  126    5    0.001474    0.000000
    0    0    0  127    5   -0.002109    0.000000
    0    0    0  128    5   -0.018796    0.000000
    0    0    0  129    5   -0.005651   -0.000000
    0    0    0  130    5    0.002630   -0.000000
    0    0    0  131    5    0.011412    0.000000
    0    0    0  132    5   -0.006763    0.000000
    0    0    0  133    5   -0.020826    0.000000
    0    0    0  134    5   -0.049896    0.000000
    0    0    0  135    5   -0.034636    0.000000
    0    0    0  136    5    0.065733   -0.000000
    0    0    0  137    5    0.199442   -0.000000
    0    0    0  138    5    0.092004   -0.000000
    0    0    0  139    5   -0.017760   -0.000000
    0    0    0  140    5   -0.025010    0.000000
    0    0    0  141    5    0.005221   -0.000000
    0    0    0  142    5   -0.003265   -0.000000
    0    0    0  143    5   -1.184617    0.000000
    0    0    0  144    5   -0.204893   -0.000000
    0    0    0  145    5    0.015134    0.000000
    0    0    0  146    5   -0.036613    0.000000
    0    0    0  147    5    0.018814   -0.000000
    0    0    0  148    5   -0.031774   -0.000000
    0    0    0  149    5    0.137271    0.000000
    0    0    0  150    5   -0.121649    0.000000
    0    0    0  151    5    0.001487    0.000000
    0    0    0  152    5   -0.015002    0.000000
    0    0    0  153    5   -0.010878   -0.000000
    0    0    0  154    5   -0.006544    0.000000
    0    0    0  155    5    0.027252   -0.000000
    0    0    0  156    5    0.006341    0.000000
    0    0    0  157    5    0.029153    0.000000
    0    0    0  158    5   -0.017722   -0.000000
    0    0    0  159    5   -0.011407   -0.000000
    0    0    0  160    5    0.121240   -0.000000
    0    0    0  161    5   -0.217745    0.000000
    0    0    0  162    5    0.013551    0.000000
    0    0    0  163    5   -0.005461    0.000000
    0    0    0  164    5    0.061474    0.000000
    0    0    0  165    5   -0.060507   -0.000000
    0    0    0  166    5   -0.440143    0.000000
    0    0    0  167    5   -0.003120    0.000000
    0    0    0  168    5   -0.498311    0.000000
    0    0    0  169    5    0.033338    0.000000
    0    0    0  170    5   -0.006012    0.000000
    0    0    0  171    5    0.028131    0.000000
    0    0    0  172    5   -0.039939   -0.000000
    0    0    0  173    5    0.009807   -0.000000
    0    0    0  174    5    0.079359   -0.000000
    0    0    0  175    5    0.003798    0.000000
    0    0    0  176    5   -0.011026    0.000000
    0    0    0  177    5   -0.027176   -0.000000
    0    0    0  178    5   -0.033579    0.000000
    0    0    0  179    5   -0.097600   -0.000000
    0    0    0  180    5    0.023838   -0.000000
    0    0    0  181    5    0.095350    0.000000
    0    0    0  182    5    0.040788   -0.000000
    0    0    0  183    5    0.056676    0.000000
    0    0    0  184    5   -0.196201   -0.000000
    0    0    0  185    5   -1.212441    0.000000
    0    0    0  186    5    0.024065    0.000000
    0    0    0    1    6    0.043585   -0.000000
    0    0    0    2    6   -0.001062   -0.000000
    0    0    0    3    6    0.022976    0.000000
    0    0    0    4    6   -0.058424    0.000000
    0    0    0    5    6    0.019674   -0.000000
    0    0    0    6    6   -3.838763   -0.000000
    0    0    0    7    6    0.029116    0.000000
    0    0    0    8    6    0.074976   -0.000000
    0    0    0    9    6   -0.173850   -0.000000
    0    0    0   10    6    0.191126   -0.000000
    0    0    0   11    6   -0.010791   -0.000000
    0    0    0   12    6   -0.004854   -0.000000
    0    0    0   13    6   -0.001424    0.000000
    0    0    0   14    6    0.004488   -0.000000
    0    0    0   15    6    0.027578   -0.000000
    0    0    0   16    6   -0.001395    0.000000
    0    0    0   17    6    0.004560   -0.000000
    0    0    0   18    6    0.004885    0.000000
    0    0    0   19    6    0.002870   -0.000000
    0    0    0   20    6   -0.004500    0.000000
    0    0    0   21    6   -0.015037   -0.000000
    0    0    0   22    6    0.000776   -0.000000
    0    0    0   23    6   -0.006063    0.000000
    0    0    0   24    6   -0.006177    0.000000
    0    0    0   25    6   -0.028367    0.000000
    0    0    0   26    6    0.019578    0.000000
    0    0    0   27    6    0.007706   -0.000000
    0    0    0   28    6    0.042952    0.000000
    0    0    0   29    6   -0.007451   -0.000000
    0    0    0   30    6   -0.016574    0.000000
    0    0    0   31    6   -0.014045    0.000000
    0    0    0   32    6    0.009414   -0.000000
    0    0    0   33    6    0.002183   -0.000000
    0    0    0   34    6   -0.007302   -0.000000
    0    0    0   35    6   -0.007860    0.000000
    0    0    0   36    6    0.025695   -0.000000
    0    0    0   37    6    0.058598   -0.000000
    0    0    0   38    6   -0.015941    0.000000
    0    0    0   39    6    0.003489    0.000000
    0    0    0   40    6   -0.004249   -0.000000
    0    0    0   41    6    0.085801    0.000000
    0    0    0   42    6    0.351231   -0.000000
    0    0    0   43    6    0.167643   -0.000000
    0    0    0   44    6   -0.066551    0.000000
    0    0    0   45    6   -0.489836    0.000000
    0    0    0   46    6    0.367022    0.000000
    0    0    0   47    6   -0.221033    0.000000
    0    0    0   48    6    0.386634   -0.000000
    0    0    0   49    6   -0.317833    0.000000
    0    0    0   50    6    0.438347   -0.000000
    0    0    0   51    6   -0.019451   -0.000000
    0    0    0   52    6    0.006352    0.000000
    0    0    0   53    6    0.002223    0.000000
    0    0    0   54    6    0.009384    0.000000
    0    0    0   55    6    0.006213   -0.000000
    0    0    0   56    6   -0.021499   -0.000000
    0    0    0   57    6   -0.009917   -0.000000
    0    0    0   58    6   -0.005863   -0.000000
    0    0    0   59    6    0.017962    0.000000
    0    0    0   60    6    0.000550    0.000000
    0    0    0   61    6    0.001252   -0.000000
    0    0    0   62    6    0.011013   -0.000000
    0    0    0   63    6    0.003073   -0.000000
    0    0    0   64    6   -0.036379   -0.000000
    0    0    0   65    6   -0.005206   -0.000000
    0    0    0   66    6    0.260693   -0.000000
    0    0    0   67    6   -0.050586    0.000000
    0    0    0   68    6   -0.206302   -0.000000
    0    0    0   69    6    0.455981    0.000000
    0    0    0   70    6   -0.007547   -0.000000
    0    0    0   71    6    0.021042    0.000000
    0    0    0   72    6   -0.114494    0.000000
    0    0    0   73    6   -0.045311   -0.000000
    0    0    0   74    6    0.039289   -0.000000
    0    0    0   75    6   -0.015026    0.000000
    0    0    0   76    6    0.006408   -0.000000
    0    0    0   77    6   -0.004046   -0.000000
    0    0    0   78    6    0.005746    0.000000
    0    0    0   79    6   -0.033060    0.000000
    0    0    0   80    6    0.007377   -0.000000
    0    0    0   81    6   -0.015693    0.000000
    0    0    0   82    6   -0.012756    0.000000
    0    0    0   83    6   -0.003585   -0.000000
    0    0    0   84    6   -0.022035   -0.000000
    0    0    0   85    6    0.014620    0.000000
    0    0    0   86    6   -0.017507   -0.000000
    0    0    0   87    6    0.005820   -0.000000
    0    0    0   88    6    0.010875    0.000000
    0    0    0   89    6    0.015748   -0.000000
    0    0    0   90    6    0.006459   -0.000000
    0    0    0   91    6   -0.012667    0.000000
    0    0    0   92    6    0.001830    0.000000
    0    0    0   93    6   -0.004603   -0.000000
    0    0    0   94    6    0.006665    0.000000
    0    0    0   95    6    0.008718   -0.000000
    0    0    0   96    6   -0.004680   -0.000000
    0    0    0   97    6   -0.012189    0.000000
    0    0    0   98    6   -0.008037    0.000000
    0    0    0   99    6   -0.006421   -0.000000
    0    0    0  100    6    0.007356    0.000000
    0    0    0  101    6   -0.006729    0.000000
    0    0    0  102    6    0.000303   -0.000000
    0    0    0  103    6    0.012187    0.000000
    0    0    0  104    6    0.005567   -0.000000
    0    0    0  105    6    0.003185    0.000000
    0    0    0  106    6   -0.009247    0.000000
    0    0    0  107    6   -0.000957   -0.000000
    0    0    0  108    6    0.004771    0.000000
    0    0    0  109    6    0.010023   -0.000000
    0    0    0  110    6   -0.007088    0.000000
    0    0    0  111    6   -0.000308    0.000000
    0    0    0  112    6   -0.005356   -0.000000
    0    0    0  113    6    0.000261   -0.000000
    0    0    0  114    6   -0.006172    0.000000
    0    0    0  115    6    0.003573   -0.000000
    0    0    0  116    6   -0.005822    0.000000
    0    0    0  117    6   -0.000622   -0.000000
    0    0    0  118    6    0.004750   -0.000000
    0    0    0  119    6    0.000935   -0.000000
    0    0    0  120    6    0.012630   -0.000000
    0    0    0  121    6    0.011471    0.000000
    0    0    0  122    6    0.002504    0.000000
    0    0    0  123    6   -0.015486    0.000000
    0    0    0  124    6    0.003287    0.000000
    0    0    0  125    6   -0.005348   -0.000000
    0    0    0  126    6    0.006231    0.000000
    0    0    0  127    6    0.036673    0.000000
    0    0    0  128    6   -0.003856    0.000000
    0    0    0  129    6   -0.008261   -0.000000
    0    0    0  130    6   -0.030303   -0.000000
    0    0    0  131    6    0.092937   -0.000000
    0    0    0  132    6    0.036972    0.000000
    0    0    0  133    6   -0.123709   -0.000000
    0    0    0  134    6   -0.005972    0.000000
    0    0    0  135    6    0.084108   -0.000000
    0    0    0  136    6    0.869836    0.000000
    0    0    0  137    6   -0.076062   -0.000000
    0    0    0  138    6    0.215924   -0.000000
    0    0    0  139    6    0.031751    0.000000
    0    0    0  140    6   -0.013246    0.000000
    0    0    0  141    6    0.009819   -0.000000
    0    0    0  142    6    0.033023   -0.000000
    0    0    0  143    6   -0.091543    0.000000
    0    0    0  144    6    0.013271    0.000000
    0    0    0  145    6   -0.009186   -0.000000
    0    0    0  146    6    0.002950    0.000000
    0    0    0  147    6    0.003489    0.000000
    0    0    0  148    6   -0.002644   -0.000000
    0    0    0  149    6    0.002951    0.000000
    0    0    0  150    6    0.004130   -0.000000
    0    0    0  151    6    0.008322   -0.000000
    0    0    0  152    6    0.007190   -0.000000
    0    0    0  153    6    0.003475   -0.000000
    0    0    0  154    6   -0.000637   -0.000000
    0    0    0  155    6    0.012567   -0.000000
    0    0    0  156    6   -0.014686    0.000000
    0    0    0  157    6   -0.096032    0.000000
    0    0    0  158    6    0.038915    0.000000
    0    0    0  159    6   -0.027817   -0.000000
    0    0    0  160    6    0.420883   -0.000000
    0    0    0  161    6   -0.209037    0.000000
    0    0    0  162    6   -0.186638   -0.000000
    0    0    0  163    6   -0.139478   -0.000000
    0    0    0  164    6   -0.035531   -0.000000
    0    0    0  165    6   -0.062126    0.000000
    0    0    0  166    6    0.895369   -0.000000
    0    0    0  167    6    0.205830   -0.000000
    0    0    0  168    6   -0.370077    0.000000
    0    0    0  169    6    0.049302   -0.000000
    0    0    0  170    6    0.007000   -0.000000
    0    0    0  171    6   -0.011222   -0.000000
    0    0    0  172    6   -0.046837    0.000000
    0    0    0  173    6    0.004293   -0.000000
    0    0    0  174    6   -0.033157   -0.000000
    0    0    0  175    6    0.019706   -0.000000
    0    0    0  176    6   -0.010089    0.000000
    0    0    0  177    6    0.005763   -0.000000
    0    0    0  178    6   -0.007753    0.000000
    0    0    0  179    6   -0.018793   -0.000000
    0    0    0  180    6   -0.042779   -0.000000
    0    0    0  181    6    0.016222    0.000000
    0    0    0  182    6   -0.001339    0.000000
    0    0    0  183    6   -0.014890   -0.000000
    0    0    0  184    6    0.030697   -0.000000
    0    0    0  185    6    0.003457   -0.000000
    0    0    0  186    6    0.003333   -0.000000
    0    0    0    1    7   -0.063388    0.000000
    0    0    0    2    7   -0.088995   -0.000000
    0    0    0    3    7    0.107525    0.000000
    0    0    0    4    7    0.014950    0.000000
    0    0    0    5    7   -0.163912   -0.000000
    0    0    0    6    7    0.029116   -0.000000
    0    0    0    7    7   -3.973460   -0.000000
    0    0    0    8    7    0.130281    0.000000
    0    0    0    9    7   -0.041008    0.000000
    0    0    0   10    7    0.070799   -0.000000
    0    0    0   11    7    0.004685   -0.000000
    0    0    0   12    7    0.004943   -0.000000
    0    0    0   13    7   -0.004457    0.000000
    0    0    0   14    7    0.025078    0.000000
    0    0    0   15    7    0.019582    0.000000
    0    0    0   16    7    0.004699   -0.000000
    0    0    0   17    7   -0.002261   -0.000000
    0    0    0   18    7   -0.004848    0.000000
    0    0    0   19    7    0.011728   -0.000000
    0    0    0   20    7   -0.006102    0.000000
    0    0    0   21    7    0.007399   -0.000000
    0    0    0   22    7   -0.003255   -0.000000
    0    0    0   23    7    0.006675    0.000000
    0    0    0   24    7   -0.015343   -0.000000
    0    0    0   25    7    0.015042    0.000000
    0    0    0   26    7    0.013313    0.000000
    0    0    0   27    7   -0.004870   -0.000000
    0    0    0   28    7    0.010969   -0.000000
    0    0    0   29    7    0.028282    0.000000
    0    0    0   30    7   -0.038441    0.000000
    0    0    0   31    7   -0.011194    0.000000
    0    0    0   32    7   -0.004722   -0.000000
    0    0    0   33    7   -0.005669    0.000000
    0    0    0   34    7   -0.002234    0.000000
    0    0    0   35    7   -0.002760    0.000000
    0    0    0   36    7    0.085074   -0.000000
    0    0    0   37    7    0.112606   -0.000000
    0    0    0   38    7   -0.018396    0.000000
    0    0    0   39    7   -0.051286    0.000000
    0    0    0   40    7    0.030465   -0.000000
    0    0    0   41    7    0.090332    0.000000
    0    0    0   42    7   -0.248308   -0.000000
    0    0    0   43    7   -0.175061   -0.000000
    0    0    0   44    7    0.038543    0.000000
    0    0    0   45    7    0.323915    0.000000
    0    0    0   46    7   -0.347975   -0.000000
    0    0    0   47    7   -0.393161   -0.000000
    0    0    0   48    7    0.288020    0.000000
    0    0    0   49    7   -0.282470    0.000000
    0    0    0   50    7    0.410756    0.000000
    0    0    0   51    7   -0.001239   -0.000000
    0    0    0   52    7    0.014016    0.000000
    0    0    0   53    7    0.012077    0.000000
    0    0    0   54    7   -0.001686    0.000000
    0    0    0   55    7    0.001419    0.000000
    0    0    0   56    7   -0.010263   -0.000000
    0    0    0   57    7    0.011150   -0.000000
    0    0    0   58    7   -0.019867   -0.000000
    0    0    0   59    7   -0.000129   -0.000000
    0    0    0   60    7   -0.002772    0.000000
    0    0    0   61    7   -0.019863   -0.000000
    0    0    0   62    7    0.041012   -0.000000
    0    0    0   63    7   -0.007894    0.000000
    0    0    0   64    7    0.006042   -0.000000
    0    0    0   65    7    0.007802   -0.000000
    0    0    0   66    7    0.195417   -0.000000
    0    0    0   67    7   -0.106642    0.000000
    0    0    0   68    7    0.401414   -0.000000
    0    0    0   69    7   -0.167206   -0.000000
    0    0    0   70    7    0.056626    0.000000
    0    0    0   71    7   -0.089464   -0.000000
    0    0    0   72    7    0.212941    0.000000
    0    0    0   73    7    0.140614    0.000000
    0    0    0   74    7    0.001118   -0.000000
    0    0    0   75    7    0.101819    0.000000
    0    0    0   76    7    0.019485   -0.000000
    0    0    0   77    7    0.007506   -0.000000
    0    0    0   78    7   -0.003771    0.000000
    0    0    0   79    7   -0.036128   -0.000000
    0    0    0   80    7   -0.000976    0.000000
    0    0    0   81    7   -0.007054   -0.000000
    0    0    0   82    7   -0.045201   -0.000000
    0    0    0   83    7   -0.002864   -0.000000
    0    0    0   84    7    0.002914   -0.000000
    0    0    0   85    7   -0.015794    0.000000
    0    0    0   86    7    0.015961   -0.000000
    0    0    0   87    7   -0.029993   -0.000000
    0    0    0   88    7    0.008550    0.000000
    0    0    0   89    7   -0.005291   -0.000000
    0    0    0   90    7    0.004532   -0.000000
    0    0    0   91    7   -0.007422    0.000000
    0    0    0   92    7    0.000925    0.000000
    0    0    0   93    7   -0.005239    0.000000
    0    0    0   94    7    0.015955    0.000000
    0    0    0   95    7    0.000840   -0.000000
    0    0    0   96    7    0.011130    0.000000
    0    0    0   97    7    0.003864   -0.000000
    0    0    0   98    7    0.008665    0.000000
    0    0    0   99    7    0.000651   -0.000000
    0    0    0  100    7   -0.006091    0.000000
    0    0    0  101    7   -0.005536    0.000000
    0    0    0  102    7    0.008742   -0.000000
    0    0    0  103    7   -0.001420   -0.000000
    0    0    0  104    7   -0.002418    0.000000
    0    0    0  105    7    0.002799    0.000000
    0    0    0  106    7    0.012039   -0.000000
    0    0    0  107    7    0.016366    0.000000
    0    0    0  108    7   -0.011079    0.000000
    0    0    0  109    7    0.011105    0.000000
    0    0    0  110    7   -0.003513    0.000000
    0    0    0  111    7    0.003376    0.000000
    0    0    0  112    7   -0.017313    0.000000
    0    0    0  113    7   -0.004232    0.000000
    0    0    0  114    7    0.001739    0.000000
    0    0    0  115    7    0.001143   -0.000000
    0    0    0  116    7   -0.004148   -0.000000
    0    0    0  117    7   -0.009114   -0.000000
    0    0    0  118    7    0.007667   -0.000000
    0    0    0  119    7   -0.022101   -0.000000
    0    0    0  120    7    0.007360   -0.000000
    0    0    0  121    7    0.018840    0.000000
    0    0    0  122    7    0.016573    0.000000
    0    0    0  123    7   -0.014162    0.000000
    0    0    0  124    7    0.030326    0.000000
    0    0    0  125    7   -0.022318    0.000000
    0    0    0  126    7    0.013274    0.000000
    0    0    0  127    7   -0.019273   -0.000000
    0    0    0  128    7    0.025779    0.000000
    0    0    0  129    7    0.013828    0.000000
    0    0    0  130    7   -0.070357   -0.000000
    0    0    0  131    7    0.073807   -0.000000
    0    0    0  132    7   -0.009478    0.000000
    0    0    0  133    7   -0.044828    0.000000
    0    0    0  134    7    0.058649    0.000000
    0    0    0  135    7    0.012143   -0.000000
    0    0    0  136    7    0.590018    0.000000
    0    0    0  137    7    0.222671    0.000000
    0    0    0  138    7   -0.267114   -0.000000
    0    0    0  139    7   -0.015807    0.000000
    0    0    0  140    7    0.068461    0.000000
    0    0    0  141    7   -0.024636   -0.000000
    0    0    0  142    7    0.057129    0.000000
    0    0    0  143    7   -0.043895    0.000000
    0    0    0  144    7    0.033304    0.000000
    0    0    0  145    7    0.001451    0.000000
    0    0    0  146    7    0.001186    0.000000
    0    0    0  147    7    0.000882   -0.000000
    0    0    0  148    7   -0.006403   -0.000000
    0    0    0  149    7   -0.007305    0.000000
    0    0    0  150    7   -0.004802   -0.000000
    0    0    0  151    7   -0.006802    0.000000
    0    0    0  152    7    0.004787    0.000000
    0    0    0  153    7   -0.021501   -0.000000
    0    0    0  154    7    0.032917   -0.000000
    0    0    0  155    7    0.024256   -0.000000
    0    0    0  156    7   -0.021156    0.000000
    0    0    0  157    7   -0.035056    0.000000
    0    0    0  158    7   -0.040606   -0.000000
    0    0    0  159    7    0.070597   -0.000000
    0    0    0  160    7   -0.657867   -0.000000
    0    0    0  161    7   -0.892371    0.000000
    0    0    0  162    7    0.401989    0.000000
    0    0    0  163    7    0.165115    0.000000
    0    0    0  164    7    0.021957    0.000000
    0    0    0  165    7   -0.096854   -0.000000
    0    0    0  166    7    0.184657    0.000000
    0    0    0  167    7   -0.214101    0.000000
    0    0    0  168    7   -1.589436   -0.000000
    0    0    0  169    7   -0.002997    0.000000
    0    0    0  170    7   -0.003569    0.000000
    0    0    0  171    7   -0.028406    0.000000
    0    0    0  172    7   -0.059046   -0.000000
    0    0    0  173    7    0.055940    0.000000
    0    0    0  174    7    0.048554   -0.000000
    0    0    0  175    7   -0.010107   -0.000000
    0    0    0  176    7    0.021412    0.000000
    0    0    0  177    7   -0.013962   -0.000000
    0    0    0  178    7   -0.068059    0.000000
    0    0    0  179    7   -0.056856   -0.000000
    0    0    0  180    7   -0.011980   -0.000000
    0    0    0  181    7   -0.008878   -0.000000
    0    0    0  182    7    0.021658    0.000000
    0    0    0  183    7    0.013000   -0.000000
    0    0    0  184    7   -0.040370   -0.000000
    0    0    0  185    7    0.017786    0.000000
    0    0    0  186    7   -0.020272   -0.000000
    0    0    0    1    8    0.186511   -0.000000
    0    0    0    2    8   -0.211864   -0.000000
    0    0    0    3    8    0.012591    0.000000
    0    0    0    4    8   -0.160324    0.000000
    0    0    0    5    8   -0.168239   -0.000000
    0    0    0    6    8    0.074976    0.000000
    0    0    0    7    8    0.130281   -0.000000
    0    0    0    8    8   -3.605038    0.000000
    0    0    0    9    8    0.217651   -0.000000
    0    0    0   10    8   -0.189476    0.000000
    0    0    0   11    8    0.012473    0.000000
    0    0    0   12    8    0.001526    0.000000
    0    0    0   13    8    0.009991   -0.000000
    0    0    0   14    8   -0.003282    0.000000
    0    0    0   15    8   -0.016899   -0.000000
    0    0    0   16    8    0.001248    0.000000
    0    0    0   17    8   -0.003602   -0.000000
    0    0    0   18    8   -0.002432    0.000000
    0    0    0   19    8    0.001111   -0.000000
    0    0    0   20    8    0.002972    0.000000
    0    0    0   21    8    0.000033   -0.000000
    0    0    0   22    8    0.009472    0.000000
    0    0    0   23    8    0.013340    0.000000
    0    0    0   24    8   -0.005857    0.000000
    0    0    0   25    8    0.003710   -0.000000
    0    0    0   26    8    0.098322   -0.000000
    0    0    0   27    8   -0.007678    0.000000
    0    0    0   28    8    0.180812    0.000000
    0    0    0   29    8    0.131270   -0.000000
    0    0    0   30    8    0.009543   -0.000000
    0    0    0   31    8   -0.009987   -0.000000
    0    0    0   32    8    0.015754    0.000000
    0    0    0   33    8   -0.022281    0.000000
    0    0    0   34    8    0.003546   -0.000000
    0    0    0   35    8   -0.008863   -0.000000
    0    0    0   36    8   -0.083122    0.000000
    0    0    0   37    8   -0.039766    0.000000
    0    0    0   38    8    0.044214   -0.000000
    0    0    0   39    8   -0.045368   -0.000000
    0    0    0   40    8   -0.067783    0.000000
    0    0    0   41    8    0.040260   -0.000000
    0    0    0   42    8    0.059073    0.000000
    0    0    0   43    8   -0.274132    0.000000
    0    0    0   44    8    0.020971   -0.000000
    0    0    0   45    8    0.059635    0.000000
    0    0    0   46    8   -0.206752    0.000000
    0    0    0   47    8   -0.013811    0.000000
    0    0    0   48    8   -0.204461   -0.000000
    0    0    0   49    8    0.076329   -0.000000
    0    0    0   50    8   -0.094095    0.000000
    0    0    0   51    8    0.002081    0.000000
    0    0    0   52    8    0.008822   -0.000000
    0    0    0   53    8    0.001550   -0.000000
    0    0    0   54    8    0.009531    0.000000
    0    0    0   55    8   -0.029945   -0.000000
    0    0    0   56    8   -0.018567    0.000000
    0    0    0   57    8   -0.001891   -0.000000
    0    0    0   58    8   -0.004913    0.000000
    0    0    0   59    8    0.017611    0.000000
    0    0    0   60    8    0.013988   -0.000000
    0    0    0   61    8   -0.012462    0.000000
    0    0    0   62    8    0.015073    0.000000
    0    0    0   63    8   -0.002283    0.000000
    0    0    0   64    8    0.000146    0.000000
    0    0    0   65    8    0.001267    0.000000
    0    0    0   66    8   -0.059688    0.000000
    0    0    0   67    8   -0.023303   -0.000000
    0    0    0   68    8   -0.132131    0.000000
    0    0    0   69    8    0.250824   -0.000000
    0    0    0   70    8   -0.032624    0.000000
    0    0    0   71    8   -0.053145   -0.000000
    0    0    0   72    8    0.136379   -0.000000
    0    0    0   73    8    0.072706    0.000000
    0    0    0   74    8   -0.037033   -0.000000
    0    0    0   75    8    0.107912    0.000000
    0    0    0   76    8   -0.003569    0.000000
    0    0    0   77    8    0.005564    0.000000
    0    0    0   78    8    0.002918    0.000000
    0    0    0   79    8    0.006649   -0.000000
    0    0    0   80    8   -0.000857    0.000000
    0    0    0   81    8   -0.013513    0.000000
    0    0    0   82    8   -0.018053   -0.000000
    0    0    0   83    8   -0.020930    0.000000
    0    0    0   84    8   -0.005169   -0.000000
    0    0    0   85    8    0.003174   -0.000000
    0    0    0   86    8    0.029839   -0.000000
    0    0    0   87    8    0.018631    0.000000
    0    0    0   88    8   -0.004540    0.000000
    0    0    0   89    8   -0.004445   -0.000000
    0    0    0   90    8    0.011341    0.000000
    0    0    0   91    8    0.006470    0.000000
    0    0    0   92    8   -0.001700   -0.000000
    0    0    0   93    8   -0.003578   -0.000000
    0    0    0   94    8   -0.005087   -0.000000
    0    0    0   95    8   -0.000851   -0.000000
    0    0    0   96    8    0.011860    0.000000
    0    0    0   97    8    0.001265   -0.000000
    0    0    0   98    8    0.005126    0.000000
    0    0    0   99    8   -0.000590    0.000000
    0    0    0  100    8   -0.005921    0.000000
    0    0    0  101    8   -0.006892   -0.000000
    0    0    0  102    8    0.005229   -0.000000
    0    0    0  103    8    0.023785    0.000000
    0    0    0  104    8    0.004946   -0.000000
    0    0    0  105    8    0.025298    0.000000
    0    0    0  106    8    0.021655    0.000000
    0    0    0  107    8    0.023754   -0.000000
    0    0    0  108    8   -0.024738    0.000000
    0    0    0  109    8    0.014397   -0.000000
    0    0    0  110    8   -0.002258   -0.000000
    0    0    0  111    8    0.018460   -0.000000
    0    0    0  112    8    0.030848    0.000000
    0    0    0  113    8   -0.014189    0.000000
    0    0    0  114    8   -0.015244   -0.000000
    0    0    0  115    8    0.003453    0.000000
    0    0    0  116    8    0.004116   -0.000000
    0    0    0  117    8   -0.015813   -0.000000
    0    0    0  118    8    0.003036    0.000000
    0    0    0  119    8   -0.003291   -0.000000
    0    0    0  120    8    0.003906    0.000000
    0    0    0  121    8    0.002367   -0.000000
    0    0    0  122    8   -0.007929   -0.000000
    0    0    0  123    8   -0.001298   -0.000000
    0    0    0  124    8   -0.021642   -0.000000
    0    0    0  125    8    0.051201   -0.000000
    0    0    0  126    8    0.010141    0.000000
    0    0    0  127    8   -0.004521    0.000000
    0    0    0  128    8    0.010059   -0.000000
    0    0    0  129    8    0.001129   -0.000000
    0    0    0  130    8   -0.025298    0.000000
    0    0    0  131    8    0.053399   -0.000000
    0    0    0  132    8   -0.023503    0.000000
    0    0    0  133    8   -0.154108    0.000000
    0    0    0  134    8   -0.031059   -0.000000
    0    0    0  135    8   -0.037512    0.000000
    0    0    0  136    8    0.554528    0.000000
    0    0    0  137    8   -0.050038   -0.000000
    0    0    0  138    8   -1.493804    0.000000
    0    0    0  139    8   -0.020633   -0.000000
    0    0    0  140    8   -0.011558   -0.000000
    0    0    0  141    8    0.005797   -0.000000
    0    0    0  142    8   -0.001382   -0.000000
    0    0    0  143    8   -0.118301    0.000000
    0    0    0  144    8    0.053365    0.000000
    0    0    0  145    8   -0.008880    0.000000
    0    0    0  146    8    0.000901   -0.000000
    0    0    0  147    8    0.003992   -0.000000
    0    0    0  148    8    0.007299    0.000000
    0    0    0  149    8   -0.006109   -0.000000
    0    0    0  150    8    0.003163    0.000000
    0    0    0  151    8   -0.025368    0.000000
    0    0    0  152    8   -0.013044    0.000000
    0    0    0  153    8    0.001698    0.000000
    0    0    0  154    8    0.000419    0.000000
    0    0    0  155    8    0.032432    0.000000
    0    0    0  156    8   -0.048844   -0.000000
    0    0    0  157    8    0.087824   -0.000000
    0    0    0  158    8    0.011337   -0.000000
    0    0    0  159    8    0.030727   -0.000000
    0    0    0  160    8   -0.565812    0.000000
    0    0    0  161    8    0.584620   -0.000000
    0    0    0  162    8   -0.864546    0.000000
    0    0    0  163    8    0.118380    0.000000
    0    0    0  164    8   -0.037631    0.000000
    0    0    0  165    8    0.020149   -0.000000
    0    0    0  166    8    0.468087   -0.000000
    0    0    0  167    8    0.378690   -0.000000
    0    0    0  168    8   -1.048809   -0.000000
    0    0    0  169    8    0.019891    0.000000
    0    0    0  170    8   -0.000507   -0.000000
    0    0    0  171    8    0.041840   -0.000000
    0    0    0  172    8    0.037809   -0.000000
    0    0    0  173    8    0.057699    0.000000
    0    0    0  174    8    0.098136   -0.000000
    0    0    0  175    8   -0.013659   -0.000000
    0    0    0  176    8    0.025367   -0.000000
    0    0    0  177    8   -0.006920   -0.000000
    0    0    0  178    8   -0.026003   -0.000000
    0    0    0  179    8   -0.032527   -0.000000
    0    0    0  180    8   -0.005080   -0.000000
    0    0    0  181    8    0.012867    0.000000
    0    0    0  182    8    0.007154    0.000000
    0    0    0  183    8    0.004820   -0.000000
    0    0    0  184    8   -0.012533    0.000000
    0    0    0  185    8    0.123554   -0.000000
    0    0    0  186    8    0.007394   -0.000000
    0    0    0    1    9   -0.493676    0.000000
    0    0    0    2    9   -0.266991   -0.000000
    0    0    0    3    9    0.036214    0.000000
    0    0    0    4    9    0.265218   -0.000000
    0    0    0    5    9   -0.811659   -0.000000
    0    0    0    6    9   -0.173850    0.000000
    0    0    0    7    9   -0.041008   -0.000000
    0    0    0    8    9    0.217651    0.000000
    0    0    0    9    9   -2.414984   -0.000000
    0    0    0   10    9   -0.205022    0.000000
    0    0    0   11    9    0.006553   -0.000000
    0    0    0   12    9    0.039460   -0.000000
    0    0    0   13    9   -0.046334   -0.000000
    0    0    0   14    9   -0.000293   -0.000000
    0    0    0   15    9   -0.003200    0.000000
    0    0    0   16    9   -0.006776   -0.000000
    0    0    0   17    9    0.000434    0.000000
    0    0    0   18    9   -0.002795   -0.000000
    0    0    0   19    9    0.008533    0.000000
    0    0    0   20    9   -0.000607    0.000000
    0    0    0   21    9    0.006949   -0.000000
    0    0    0   22    9   -0.024977   -0.000000
    0    0    0   23    9   -0.008520    0.000000
    0    0    0   24    9    0.007294    0.000000
    0    0    0   25    9   -0.026973    0.000000
    0    0    0   26    9    0.004482    0.000000
    0    0    0   27    9    0.001158   -0.000000
    0    0    0   28    9   -0.121084   -0.000000
    0    0    0   29    9   -0.059046   -0.000000
    0    0    0   30    9    0.034295    0.000000
    0    0    0   31    9    0.010405    0.000000
    0    0    0   32    9    0.017869    0.000000
    0    0    0   33    9   -0.003293    0.000000
    0    0    0   34    9    0.010835    0.000000
    0    0    0   35    9    0.019474    0.000000
    0    0    0   36    9   -0.072211   -0.000000
    0    0    0   37    9   -0.015165   -0.000000
    0    0    0   38    9    0.045478    0.000000
    0    0    0   39    9    0.002449    0.000000
    0    0    0   40    9   -0.037002   -0.000000
    0    0    0   41    9   -0.171591   -0.000000
    0    0    0   42    9    0.356308   -0.000000
    0    0    0   43    9    0.009637   -0.000000
    0    0    0   44    9   -0.203157   -0.000000
    0    0    0   45    9   -0.305952    0.000000
    0    0    0   46    9    0.081474   -0.000000
    0    0    0   47    9   -0.157565   -0.000000
    0    0    0   48    9    0.219255    0.000000
    0    0    0   49    9   -0.020098    0.000000
    0    0    0   50    9    0.442186    0.000000
    0    0    0   51    9    0.010369    0.000000
    0    0    0   52    9    0.049005    0.000000
    0    0    0   53    9   -0.025905    0.000000
    0    0    0   54    9    0.008892   -0.000000
    0    0    0   55    9   -0.041361    0.000000
    0    0    0   56    9   -0.014397   -0.000000
    0    0    0   57    9    0.005542    0.000000
    0    0    0   58    9   -0.007619   -0.000000
    0    0    0   59    9   -0.013177   -0.000000
    0    0    0   60    9   -0.016687    0.000000
    0    0    0   61    9    0.000109    0.000000
    0    0    0   62    9    0.023022   -0.000000
    0    0    0   63    9   -0.008526   -0.000000
    0    0    0   64    9   -0.012655   -0.000000
    0    0    0   65    9   -0.002401    0.000000
    0    0    0   66    9   -0.014503   -0.000000
    0    0    0   67    9    0.778817   -0.000000
    0    0    0   68    9   -0.139807    0.000000
    0    0    0   69    9   -0.147747    0.000000
    0    0    0   70    9    0.499259   -0.000000
    0    0    0   71    9    0.502221    0.000000
    0    0    0   72    9   -0.017579   -0.000000
    0    0    0   73    9    0.194310    0.000000
    0    0    0   74    9   -0.293092   -0.000000
    0    0    0   75    9    0.013571   -0.000000
    0    0    0   76    9    0.010340    0.000000
    0    0    0   77    9    0.007563    0.000000
    0    0    0   78    9   -0.034385    0.000000
    0    0    0   79    9    0.089548    0.000000
    0    0    0   80    9   -0.001563   -0.000000
    0    0    0   81    9   -0.013068    0.000000
    0    0    0   82    9   -0.009233   -0.000000
    0    0    0   83    9   -0.016451   -0.000000
    0    0    0   84    9   -0.025843   -0.000000
    0    0    0   85    9   -0.021242   -0.000000
    0    0    0   86    9    0.014911    0.000000
    0    0    0   87    9   -0.013859   -0.000000
    0    0    0   88    9    0.043873    0.000000
    0    0    0   89    9    0.010837   -0.000000
    0    0    0   90    9   -0.010591    0.000000
    0    0    0   91    9    0.019016   -0.000000
    0    0    0   92    9   -0.016627   -0.000000
    0    0    0   93    9   -0.002574    0.000000
    0    0    0   94    9   -0.002025   -0.000000
    0    0    0   95    9   -0.014925   -0.000000
    0    0    0   96    9   -0.002121   -0.000000
    0    0    0   97    9    0.000566    0.000000
    0    0    0   98    9    0.014321    0.000000
    0    0    0   99    9   -0.005725   -0.000000
    0    0    0  100    9    0.014226    0.000000
    0    0    0  101    9    0.009250    0.000000
    0    0    0  102    9   -0.007544    0.000000
    0    0    0  103    9    0.009904   -0.000000
    0    0    0  104    9   -0.013865   -0.000000
    0    0    0  105    9   -0.020225   -0.000000
    0    0    0  106    9   -0.039721   -0.000000
    0    0    0  107    9    0.021390    0.000000
    0    0    0  108    9   -0.067871   -0.000000
    0    0    0  109    9    0.008015    0.000000
    0    0    0  110    9   -0.001685    0.000000
[...]
    0    0    0  160  184    0.010975   -0.000000
    0    0    0  161  184   -0.039807    0.000000
    0    0    0  162  184   -0.007887    0.000000
    0    0    0  163  184    0.037613    0.000000
    0    0    0  164  184   -0.122902    0.000000
    0    0    0  165  184    0.044231    0.000000
    0    0    0  166  184   -0.207004   -0.000000
    0    0    0  167  184    0.459361    0.000000
    0    0    0  168  184    0.052981    0.000000
    0    0    0  169  184    0.005269    0.000000
    0    0    0  170  184    0.027491   -0.000000
    0    0    0  171  184    0.023087   -0.000000
    0    0    0  172  184    0.027919   -0.000000
    0    0    0  173  184    0.015473    0.000000
    0    0    0  174  184   -0.006534   -0.000000
    0    0    0  175  184   -0.010912   -0.000000
    0    0    0  176  184   -0.075935    0.000000
    0    0    0  177  184    0.008767   -0.000000
    0    0    0  178  184   -0.157887   -0.000000
    0    0    0  179  184   -0.052531   -0.000000
    0    0    0  180  184    0.262662    0.000000
    0    0    0  181  184    0.943544    0.000000
    0    0    0  182  184    0.001454    0.000000
    0    0    0  183  184   -0.043268    0.000000
    0    0    0  184  184   -3.146521    0.000000
    0    0    0  185  184    0.034866    0.000000
    0    0    0  186  184    0.035383   -0.000000
    0    0    0    1  185    0.665708    0.000000
    0    0    0    2  185   -0.502724   -0.000000
    0    0    0    3  185   -0.221137    0.000000
    0    0    0    4  185    0.010769   -0.000000
    0    0    0    5  185   -1.212441   -0.000000
    0    0    0    6  185    0.003457    0.000000
    0    0    0    7  185    0.017786   -0.000000
    0    0    0    8  185    0.123554    0.000000
    0    0    0    9  185    0.220411   -0.000000
    0    0    0   10  185   -0.090112   -0.000000
    0    0    0   11  185    0.014589   -0.000000
    0    0    0   12  185   -0.034959    0.000000
    0    0    0   13  185    0.006340    0.000000
    0    0    0   14  185   -0.000265    0.000000
    0    0    0   15  185    0.009396   -0.000000
    0    0    0   16  185    0.002226   -0.000000
    0    0    0   17  185    0.018928   -0.000000
    0    0    0   18  185   -0.011206    0.000000
    0    0    0   19  185    0.000149   -0.000000
    0    0    0   20  185   -0.010422   -0.000000
    0    0    0   21  185    0.004438   -0.000000
    0    0    0   22  185    0.001819    0.000000
    0    0    0   23  185    0.038834    0.000000
    0    0    0   24  185   -0.008532   -0.000000
    0    0    0   25  185   -0.007954    0.000000
    0    0    0   26  185   -0.005819    0.000000
    0    0    0   27  185   -0.009925   -0.000000
    0    0    0   28  185   -0.005495    0.000000
    0    0    0   29  185    0.007890   -0.000000
    0    0    0   30  185    0.017841    0.000000
    0    0    0   31  185    0.006469   -0.000000
    0    0    0   32  185   -0.004948   -0.000000
    0    0    0   33  185   -0.007321    0.000000
    0    0    0   34  185    0.034004   -0.000000
    0    0    0   35  185   -0.035350    0.000000
    0    0    0   36  185    0.025834   -0.000000
    0    0    0   37  185    0.025720    0.000000
    0    0    0   38  185    0.012037    0.000000
    0    0    0   39  185   -0.033218   -0.000000
    0    0    0   40  185    0.002435   -0.000000
    0    0    0   41  185    0.016873   -0.000000
    0    0    0   42  185   -0.027971    0.000000
    0    0    0   43  185   -0.017989    0.000000
    0    0    0   44  185   -0.011704   -0.000000
    0    0    0   45  185    0.028124   -0.000000
    0    0    0   46  185    0.105936   -0.000000
    0    0    0   47  185   -0.055433   -0.000000
    0    0    0   48  185    0.006560    0.000000
    0    0    0   49  185    0.000709   -0.000000
    0    0    0   50  185   -0.141030    0.000000
    0    0    0   51  185   -0.582515    0.000000
    0    0    0   52  185   -0.421066    0.000000
    0    0    0   53  185    0.080381    0.000000
    0    0    0   54  185    0.064028    0.000000
    0    0    0   55  185    0.715378   -0.000000
    0    0    0   56  185   -0.053461    0.000000
    0    0    0   57  185   -0.001814   -0.000000
    0    0    0   58  185    0.031938    0.000000
    0    0    0   59  185    0.043757    0.000000
    0    0    0   60  185   -0.160916    0.000000
    0    0    0   61  185   -0.011128   -0.000000
    0    0    0   62  185   -0.016934   -0.000000
    0    0    0   63  185   -0.008314    0.000000
    0    0    0   64  185   -0.004018   -0.000000
    0    0    0   65  185   -0.001544   -0.000000
    0    0    0   66  185   -0.054875   -0.000000
    0    0    0   67  185    0.188390   -0.000000
    0    0    0   68  185   -0.152491    0.000000
    0    0    0   69  185    0.010687    0.000000
    0    0    0   70  185    0.030863   -0.000000
    0    0    0   71  185   -0.481075   -0.000000
    0    0    0   72  185    0.303186    0.000000
    0    0    0   73  185   -0.717265    0.000000
    0    0    0   74  185    0.368273    0.000000
    0    0    0   75  185    0.349419    0.000000
    0    0    0   76  185   -0.001499    0.000000
    0    0    0   77  185    0.016099   -0.000000
    0    0    0   78  185    0.028358    0.000000
    0    0    0   79  185   -0.013603   -0.000000
    0    0    0   80  185   -0.005671   -0.000000
    0    0    0   81  185   -0.001851   -0.000000
    0    0    0   82  185    0.026048    0.000000
    0    0    0   83  185   -0.018158   -0.000000
    0    0    0   84  185   -0.083706   -0.000000
    0    0    0   85  185    0.008545   -0.000000
    0    0    0   86  185    0.625117    0.000000
    0    0    0   87  185    1.300509   -0.000000
    0    0    0   88  185    0.864399    0.000000
    0    0    0   89  185    0.138663   -0.000000
    0    0    0   90  185    0.401561    0.000000
    0    0    0   91  185   -0.017113    0.000000
    0    0    0   92  185    0.010566    0.000000
    0    0    0   93  185    0.000098   -0.000000
    0    0    0   94  185   -0.011150    0.000000
    0    0    0   95  185    0.012153   -0.000000
    0    0    0   96  185   -0.036202    0.000000
    0    0    0   97  185    0.003703    0.000000
    0    0    0   98  185   -0.000670    0.000000
    0    0    0   99  185    0.008161   -0.000000
    0    0    0  100  185    0.007511   -0.000000
    0    0    0  101  185   -0.006166   -0.000000
    0    0    0  102  185   -0.012885   -0.000000
    0    0    0  103  185    0.008812   -0.000000
    0    0    0  104  185   -0.001082   -0.000000
    0    0    0  105  185    0.001145    0.000000
    0    0    0  106  185   -0.005931    0.000000
    0    0    0  107  185    0.043071    0.000000
    0    0    0  108  185    0.088257    0.000000
    0    0    0  109  185   -0.010581    0.000000
    0    0    0  110  185    0.017614    0.000000
    0    0    0  111  185   -0.005252   -0.000000
    0    0    0  112  185    0.022220   -0.000000
    0    0    0  113  185   -0.038268   -0.000000
    0    0    0  114  185    0.002531   -0.000000
    0    0    0  115  185    0.040632    0.000000
    0    0    0  116  185    0.085440    0.000000
    0    0    0  117  185   -0.036876    0.000000
    0    0    0  118  185   -0.073492   -0.000000
    0    0    0  119  185    0.141724    0.000000
    0    0    0  120  185    0.657336    0.000000
    0    0    0  121  185    0.079222    0.000000
    0    0    0  122  185    0.015540   -0.000000
    0    0    0  123  185    0.041021   -0.000000
    0    0    0  124  185   -0.055945   -0.000000
    0    0    0  125  185    0.938345   -0.000000
    0    0    0  126  185   -0.082110    0.000000
    0    0    0  127  185   -0.033211    0.000000
    0    0    0  128  185    0.005169   -0.000000
    0    0    0  129  185    0.001452   -0.000000
    0    0    0  130  185    0.023756   -0.000000
    0    0    0  131  185   -0.023411   -0.000000
    0    0    0  132  185   -0.015639    0.000000
    0    0    0  133  185    0.031072   -0.000000
    0    0    0  134  185    0.013119    0.000000
    0    0    0  135  185    0.001716    0.000000
    0    0    0  136  185    0.027659    0.000000
    0    0    0  137  185   -0.012316   -0.000000
    0    0    0  138  185   -0.029735    0.000000
    0    0    0  139  185   -0.096176    0.000000
    0    0    0  140  185    0.052444    0.000000
    0    0    0  141  185   -0.008049    0.000000
    0    0    0  142  185    0.168190   -0.000000
    0    0    0  143  185    0.236079    0.000000
    0    0    0  144  185    0.141939    0.000000
    0    0    0  145  185    0.060724   -0.000000
    0    0    0  146  185    0.086185    0.000000
    0    0    0  147  185   -0.000943    0.000000
    0    0    0  148  185   -0.026997   -0.000000
    0    0    0  149  185   -0.012181    0.000000
    0    0    0  150  185   -0.111233    0.000000
    0    0    0  151  185   -0.014715   -0.000000
    0    0    0  152  185    0.006997   -0.000000
    0    0    0  153  185   -0.002264   -0.000000
    0    0    0  154  185   -0.006994   -0.000000
    0    0    0  155  185   -0.022578    0.000000
    0    0    0  156  185   -0.008725   -0.000000
    0    0    0  157  185    0.019091    0.000000
    0    0    0  158  185   -0.022506   -0.000000
    0    0    0  159  185   -0.029186   -0.000000
    0    0    0  160  185   -0.081168    0.000000
    0    0    0  161  185    0.156590   -0.000000
    0    0    0  162  185   -0.012533   -0.000000
    0    0    0  163  185   -0.159360    0.000000
    0    0    0  164  185   -0.029920    0.000000
    0    0    0  165  185    0.037410    0.000000
    0    0    0  166  185    0.385057   -0.000000
    0    0    0  167  185    0.727598    0.000000
    0    0    0  168  185    0.035027   -0.000000
    0    0    0  169  185    0.023219    0.000000
    0    0    0  170  185    0.022336   -0.000000
    0    0    0  171  185    0.027774    0.000000
    0    0    0  172  185    0.028278   -0.000000
    0    0    0  173  185   -0.004904   -0.000000
    0    0    0  174  185   -0.055829    0.000000
    0    0    0  175  185    0.022560   -0.000000
    0    0    0  176  185    0.047111    0.000000
    0    0    0  177  185    0.061657    0.000000
    0    0    0  178  185   -0.000755    0.000000
    0    0    0  179  185    0.078662    0.000000
    0    0    0  180  185   -0.337017    0.000000
    0    0    0  181  185    0.214391   -0.000000
    0    0    0  182  185   -0.300297    0.000000
    0    0    0  183  185   -0.094508   -0.000000
    0    0    0  184  185    0.034866   -0.000000
    0    0    0  185  185   -3.705201   -0.000000
    0    0    0  186  185   -0.280556   -0.000000
    0    0    0    1  186    0.133459   -0.000000
    0    0    0    2  186   -0.110748   -0.000000
    0    0    0    3  186   -0.092781   -0.000000
    0    0    0    4  186   -1.201254   -0.000000
    0    0    0    5  186    0.024065   -0.000000
    0    0    0    6  186    0.003333    0.000000
    0    0    0    7  186   -0.020272    0.000000
    0    0    0    8  186    0.007394    0.000000
    0    0    0    9  186    0.009385    0.000000
    0    0    0   10  186   -0.022390   -0.000000
    0    0    0   11  186   -0.000012    0.000000
    0    0    0   12  186    0.001794   -0.000000
    0    0    0   13  186   -0.012015    0.000000
    0    0    0   14  186    0.020688    0.000000
    0    0    0   15  186   -0.014437   -0.000000
    0    0    0   16  186   -0.006407    0.000000
    0    0    0   17  186    0.000539   -0.000000
    0    0    0   18  186    0.032338   -0.000000
    0    0    0   19  186   -0.021331   -0.000000
    0    0    0   20  186   -0.039474    0.000000
    0    0    0   21  186   -0.033472    0.000000
    0    0    0   22  186    0.010784    0.000000
    0    0    0   23  186    0.036446   -0.000000
    0    0    0   24  186   -0.019225   -0.000000
    0    0    0   25  186    0.036701    0.000000
    0    0    0   26  186    0.008841    0.000000
    0    0    0   27  186    0.002170    0.000000
    0    0    0   28  186   -0.021425   -0.000000
    0    0    0   29  186    0.011579    0.000000
    0    0    0   30  186    0.009425    0.000000
    0    0    0   31  186    0.002093   -0.000000
    0    0    0   32  186    0.038972    0.000000
    0    0    0   33  186    0.009090    0.000000
    0    0    0   34  186    0.002889    0.000000
    0    0    0   35  186   -0.010061   -0.000000
    0    0    0   36  186    0.004061   -0.000000
    0    0    0   37  186   -0.024667   -0.000000
    0    0    0   38  186   -0.006933    0.000000
    0    0    0   39  186   -0.002852    0.000000
    0    0    0   40  186    0.003142    0.000000
    0    0    0   41  186   -0.022600    0.000000
    0    0    0   42  186    0.000633   -0.000000
    0    0    0   43  186   -0.012750   -0.000000
    0    0    0   44  186   -0.008447    0.000000
    0    0    0   45  186   -0.013039    0.000000
    0    0    0   46  186    0.043729    0.000000
    0    0    0   47  186   -0.028090   -0.000000
    0    0    0   48  186    0.040495   -0.000000
    0    0    0   49  186   -0.045167   -0.000000
    0    0    0   50  186   -0.030661    0.000000
    0    0    0   51  186   -0.295795    0.000000
    0    0    0   52  186   -0.074746   -0.000000
    0    0    0   53  186    1.310781    0.000000
    0    0    0   54  186    0.152571    0.000000
    0    0    0   55  186   -0.468643   -0.000000
    0    0    0   56  186    0.042759   -0.000000
    0    0    0   57  186    0.000821    0.000000
    0    0    0   58  186    0.002705   -0.000000
    0    0    0   59  186   -0.035003   -0.000000
    0    0    0   60  186    0.129591    0.000000
    0    0    0   61  186   -0.003156   -0.000000
    0    0    0   62  186   -0.007208   -0.000000
    0    0    0   63  186    0.001904    0.000000
    0    0    0   64  186    0.000437    0.000000
    0    0    0   65  186   -0.001230   -0.000000
    0    0    0   66  186    0.000574   -0.000000
    0    0    0   67  186    0.030176    0.000000
    0    0    0   68  186   -0.045157   -0.000000
    0    0    0   69  186    0.009352    0.000000
    0    0    0   70  186    0.006792   -0.000000
    0    0    0   71  186    0.108579    0.000000
    0    0    0   72  186   -0.696548    0.000000
    0    0    0   73  186    0.388010   -0.000000
    0    0    0   74  186    0.739624   -0.000000
    0    0    0   75  186    0.216592    0.000000
    0    0    0   76  186    0.002253   -0.000000
    0    0    0   77  186   -0.032770    0.000000
    0    0    0   78  186    0.028045   -0.000000
    0    0    0   79  186    0.004336    0.000000
    0    0    0   80  186    0.017025    0.000000
    0    0    0   81  186   -0.019364   -0.000000
    0    0    0   82  186    0.005940   -0.000000
    0    0    0   83  186   -0.021151   -0.000000
    0    0    0   84  186   -0.175976    0.000000
    0    0    0   85  186    0.006964    0.000000
    0    0    0   86  186   -0.057540    0.000000
    0    0    0   87  186    0.546485   -0.000000
    0    0    0   88  186   -0.320911   -0.000000
    0    0    0   89  186    0.813090   -0.000000
    0    0    0   90  186   -0.295311   -0.000000
    0    0    0   91  186   -0.005952   -0.000000
    0    0    0   92  186   -0.002449    0.000000
    0    0    0   93  186   -0.001284    0.000000
    0    0    0   94  186    0.001459   -0.000000
    0    0    0   95  186   -0.067667    0.000000
    0    0    0   96  186    0.117034   -0.000000
    0    0    0   97  186    0.008321   -0.000000
    0    0    0   98  186   -0.003146    0.000000
    0    0    0   99  186    0.005849   -0.000000
    0    0    0  100  186    0.000529   -0.000000
    0    0    0  101  186   -0.004040    0.000000
    0    0    0  102  186    0.006742    0.000000
    0    0    0  103  186   -0.003493   -0.000000
    0    0    0  104  186   -0.003674    0.000000
    0    0    0  105  186    0.002106    0.000000
    0    0    0  106  186    0.000158   -0.000000
    0    0    0  107  186    0.065614    0.000000
    0    0    0  108  186    0.097263    0.000000
    0    0    0  109  186   -0.030055    0.000000
    0    0    0  110  186    0.001257   -0.000000
    0    0    0  111  186   -0.001398    0.000000
    0    0    0  112  186    0.024777    0.000000
    0    0    0  113  186    0.003131   -0.000000
    0    0    0  114  186   -0.013859    0.000000
    0    0    0  115  186    0.090817    0.000000
    0    0    0  116  186   -0.052377   -0.000000
    0    0    0  117  186    0.033500    0.000000
    0    0    0  118  186    0.061157    0.000000
    0    0    0  119  186    0.316860   -0.000000
    0    0    0  120  186    0.634531    0.000000
    0    0    0  121  186   -0.045239   -0.000000
    0    0    0  122  186   -0.017954    0.000000
    0    0    0  123  186    0.097169    0.000000
    0    0    0  124  186   -0.031575   -0.000000
    0    0    0  125  186   -0.198071    0.000000
    0    0    0  126  186   -0.099724   -0.000000
    0    0    0  127  186    0.025553   -0.000000
    0    0    0  128  186    0.002659    0.000000
    0    0    0  129  186    0.003788    0.000000
    0    0    0  130  186   -0.023562   -0.000000
    0    0    0  131  186   -0.008661   -0.000000
    0    0    0  132  186   -0.016048   -0.000000
    0    0    0  133  186    0.012092   -0.000000
    0    0    0  134  186   -0.004752    0.000000
    0    0    0  135  186    0.005330    0.000000
    0    0    0  136  186    0.000786    0.000000
    0    0    0  137  186   -0.008649   -0.000000
    0    0    0  138  186    0.000325    0.000000
    0    0    0  139  186   -0.023824    0.000000
    0    0    0  140  186   -0.057018    0.000000
    0    0    0  141  186    0.040356    0.000000
    0    0    0  142  186    0.191382    0.000000
    0    0    0  143  186    0.230219    0.000000
    0    0    0  144  186    0.333701   -0.000000
    0    0    0  145  186   -0.051417    0.000000
    0    0    0  146  186    0.038157    0.000000
    0    0    0  147  186    0.013695    0.000000
    0    0    0  148  186    0.029414    0.000000
    0    0    0  149  186   -0.507435   -0.000000
    0    0    0  150  186    0.607899   -0.000000
    0    0    0  151  186   -0.003996   -0.000000
    0    0    0  152  186   -0.004028   -0.000000
    0    0    0  153  186    0.010076    0.000000
    0    0    0  154  186   -0.008141   -0.000000
    0    0    0  155  186    0.009625    0.000000
    0    0    0  156  186   -0.025550   -0.000000
    0    0    0  157  186    0.005359   -0.000000
    0    0    0  158  186   -0.005953    0.000000
    0    0    0  159  186    0.001745    0.000000
    0    0    0  160  186    0.011431   -0.000000
    0    0    0  161  186   -0.025628    0.000000
    0    0    0  162  186   -0.010894   -0.000000
    0    0    0  163  186   -0.040323   -0.000000
    0    0    0  164  186   -0.003104    0.000000
    0    0    0  165  186    0.076367    0.000000
    0    0    0  166  186   -0.077409   -0.000000
    0    0    0  167  186    0.031743    0.000000
    0    0    0  168  186    0.035927    0.000000
    0    0    0  169  186    0.003146    0.000000
    0    0    0  170  186    0.001967   -0.000000
    0    0    0  171  186    0.016311    0.000000
    0    0    0  172  186    0.005702    0.000000
    0    0    0  173  186   -0.013564    0.000000
    0    0    0  174  186   -0.003923    0.000000
    0    0    0  175  186    0.081473   -0.000000
    0    0    0  176  186    0.023516    0.000000
    0    0    0  177  186    0.005092    0.000000
    0    0    0  178  186   -0.018572   -0.000000
    0    0    0  179  186   -0.334656    0.000000
    0    0    0  180  186    0.616869    0.000000
    0    0    0  181  186   -0.090207   -0.000000
    0    0    0  182  186    0.043507    0.000000
    0    0    0  183  186   -0.247389   -0.000000
    0    0    0  184  186    0.035383    0.000000
    0    0    0  185  186   -0.280556    0.000000
    0    0    0  186  186   -2.877071   -0.000000
