 
             +---------------------------------------------------+
             |                                                   |
             |                   WANNIER90                       |
             |                                                   |
             +---------------------------------------------------+
             |                                                   |
             |        Welcome to the Maximally-Localized         |
             |        Generalized Wannier Functions code         |
             |            http://www.wannier.org                 |
             |                                                   |
             |                                                   |
             |  Wannier90 Developer Group:                       |
             |    Giovanni Pizzi    (EPFL)                       |
             |    Valerio Vitale    (Cambridge)                  |
             |    David Vanderbilt  (Rutgers University)         |
             |    Nicola Marzari    (EPFL)                       |
             |    Ivo Souza         (Universidad del Pais Vasco) |
             |    Arash A. Mostofi  (Imperial College London)    |
             |    Jonathan R. Yates (University of Oxford)       |
             |                                                   |
             |  For the full list of Wannier90 3.x authors,      |
             |  please check the code documentation and the      |
             |  README on the GitHub page of the code            |
             |                                                   |
             |                                                   |
             |  Please cite                                      |
             |                                                   |
             |  [ref] "Wannier90 as a community code:            |
             |        new features and applications",            |
             |        G. Pizzi et al., J. Phys. Cond. Matt. 32,  |
             |        165902 (2020).                             |
             |        http://doi.org/10.1088/1361-648X/ab51ff    |
             |                                                   |
             |  in any publications arising from the use of      |
             |  this code. For the method please cite            |
             |                                                   |
             |  [ref] "Maximally Localized Generalised Wannier   |
             |         Functions for Composite Energy Bands"     |
             |         N. Marzari and D. Vanderbilt              |
             |         Phys. Rev. B 56 12847 (1997)              |
             |                                                   |
             |  [ref] "Maximally Localized Wannier Functions     |
             |         for Entangled Energy Bands"               |
             |         I. Souza, N. Marzari and D. Vanderbilt    |
             |         Phys. Rev. B 65 035109 (2001)             |
             |                                                   |
             |                                                   |
             | Copyright (c) 1996-2020                           |
             |        The Wannier90 Developer Group and          |
             |        individual contributors                    |
             |                                                   |
             |      Release: 3.1.0        5th March    2020      |
             |                                                   |
             | This program is free software; you can            |
             | redistribute it and/or modify it under the terms  |
             | of the GNU General Public License as published by |
             | the Free Software Foundation; either version 2 of |
             | the License, or (at your option) any later version|
             |                                                   |
             | This program is distributed in the hope that it   |
             | will be useful, but WITHOUT ANY WARRANTY; without |
             | even the implied warranty of MERCHANTABILITY or   |
             | FITNESS FOR A PARTICULAR PURPOSE. See the GNU     |
             | General Public License for more details.          |
             |                                                   |
             | You should have received a copy of the GNU General|
             | Public License along with this program; if not,   |
             | write to the Free Software Foundation, Inc.,      |
             | 675 Mass Ave, Cambridge, MA 02139, USA.           |
             |                                                   |
             +---------------------------------------------------+
             |    Execution started on  4Oct2023 at 14:54:26     |
             +---------------------------------------------------+
 
 ******************************************************************************
 * -> Using CODATA 2006 constant values                                       *
 *    (http://physics.nist.gov/cuu/Constants/index.html)                      *
 * -> Using Bohr value from CODATA                                            *
 ******************************************************************************
 

 Running in parallel on 144 CPUs

 
                                    ------
                                    SYSTEM
                                    ------
 
                              Lattice Vectors (Ang)
                    a_1    13.784171   0.000000   0.000000
                    a_2    -6.892085  11.937442   0.000000
                    a_3     0.000000   0.000000  23.631430
 
                   Unit Cell Volume:    3888.49848  (Ang^3)
 
                        Reciprocal-Space Vectors (Ang^-1)
                    b_1     0.455826   0.263171   0.000000
                    b_2     0.000000   0.526343   0.000000
                    b_3     0.000000   0.000000   0.265883
  
 *----------------------------------------------------------------------------*
 |   Site       Fractional Coordinate          Cartesian Coordinate (Ang)     |
 +----------------------------------------------------------------------------+
 | Nb   1   0.00000   0.00000   0.07097   |    0.00000   0.00000   1.67715    |
 | Nb   2   0.25000   0.00000   0.07097   |    3.44604   0.00000   1.67715    |
 | Nb   3   0.50000   0.00000   0.07097   |    6.89209   0.00000   1.67715    |
 | Nb   4   0.75000   0.00000   0.07097   |   10.33813   0.00000   1.67715    |
 | Nb   5   0.75000   0.25000   0.07097   |    8.61511   2.98436   1.67715    |
 | Nb   6   0.75000   0.50000   0.07097   |    6.89209   5.96872   1.67715    |
 | Nb   7   0.75000   0.75000   0.07097   |    5.16906   8.95308   1.67715    |
 | Nb   8   0.50000   0.75000   0.07097   |    1.72302   8.95308   1.67715    |
 | Nb   9   0.25000   0.75000   0.07097   |   -1.72302   8.95308   1.67715    |
 | Nb  10   0.00000   0.75000   0.07097   |   -5.16906   8.95308   1.67715    |
 | Nb  11   0.50000   0.25000   0.07097   |    5.16906   2.98436   1.67715    |
 | Nb  12   0.50000   0.50000   0.07097   |    3.44604   5.96872   1.67715    |
 | Nb  13   0.25000   0.50000   0.07097   |    0.00000   5.96872   1.67715    |
 | Nb  14   0.25000   0.25000   0.07097   |    1.72302   2.98436   1.67715    |
 | Nb  15   0.00000   0.25000   0.07097   |   -1.72302   2.98436   1.67715    |
 | Nb  16   0.00000   0.50000   0.07097   |   -3.44604   5.96872   1.67715    |
 | Se   1   0.16667   0.08333   0.00000   |    1.72302   0.99479   0.00000    |
 | Se   2   0.16667   0.08333   0.14194   |    1.72302   0.99479   3.35430    |
 | Se   3   0.41667   0.08333   0.00000   |    5.16906   0.99479   0.00000    |
 | Se   4   0.41667   0.08333   0.14194   |    5.16906   0.99479   3.35430    |
 | Se   5   0.66667   0.08333   0.00000   |    8.61511   0.99479   0.00000    |
 | Se   6   0.66667   0.08333   0.14194   |    8.61511   0.99479   3.35430    |
 | Se   7   0.91667   0.08333   0.00000   |   12.06115   0.99479   0.00000    |
 | Se   8   0.91667   0.08333   0.14194   |   12.06115   0.99479   3.35430    |
 | Se   9   0.91667   0.33333   0.00000   |   10.33813   3.97915   0.00000    |
 | Se  10   0.91667   0.33333   0.14194   |   10.33813   3.97915   3.35430    |
 | Se  11   0.91667   0.58333   0.00000   |    8.61511   6.96351   0.00000    |
 | Se  12   0.91667   0.58333   0.14194   |    8.61511   6.96351   3.35430    |
 | Se  13   0.91667   0.83333   0.00000   |    6.89209   9.94787   0.00000    |
 | Se  14   0.91667   0.83333   0.14194   |    6.89209   9.94787   3.35430    |
 | Se  15   0.66667   0.83333   0.00000   |    3.44604   9.94787   0.00000    |
 | Se  16   0.66667   0.83333   0.14194   |    3.44604   9.94787   3.35430    |
 | Se  17   0.41667   0.83333   0.00000   |    0.00000   9.94787   0.00000    |
 | Se  18   0.41667   0.83333   0.14194   |    0.00000   9.94787   3.35430    |
 | Se  19   0.16667   0.83333   0.00000   |   -3.44604   9.94787   0.00000    |
 | Se  20   0.16667   0.83333   0.14194   |   -3.44604   9.94787   3.35430    |
 | Se  21   0.66667   0.33333   0.00000   |    6.89209   3.97915   0.00000    |
 | Se  22   0.66667   0.33333   0.14194   |    6.89209   3.97915   3.35430    |
 | Se  23   0.66667   0.58333   0.00000   |    5.16906   6.96351   0.00000    |
 | Se  24   0.66667   0.58333   0.14194   |    5.16906   6.96351   3.35430    |
 | Se  25   0.41667   0.58333   0.00000   |    1.72302   6.96351   0.00000    |
 | Se  26   0.41667   0.58333   0.14194   |    1.72302   6.96351   3.35430    |
 | Se  27   0.41667   0.33333   0.00000   |    3.44604   3.97915   0.00000    |
 | Se  28   0.41667   0.33333   0.14194   |    3.44604   3.97915   3.35430    |
 | Se  29   0.16667   0.33333   0.00000   |    0.00000   3.97915   0.00000    |
 | Se  30   0.16667   0.33333   0.14194   |    0.00000   3.97915   3.35430    |
 | Se  31   0.16667   0.58333   0.00000   |   -1.72302   6.96351   0.00000    |
 | Se  32   0.16667   0.58333   0.14194   |   -1.72302   6.96351   3.35430    |
 *----------------------------------------------------------------------------*
                                -----------
                                PROJECTIONS
                                -----------
  
 +----------------------------------------------------------------------------+
 |     Frac. Coord.   l mr  r        z-axis               x-axis          Z/a |
 +----------------------------------------------------------------------------+
 |  0.00  0.00  0.07  2  1  1  0.000  0.000  1.000  1.000  0.000  0.000   1.0 |
 |  0.00  0.00  0.07  2  2  1  0.000  0.000  1.000  1.000  0.000  0.000   1.0 |
 |  0.00  0.00  0.07  2  3  1  0.000  0.000  1.000  1.000  0.000  0.000   1.0 |
 |  0.00  0.00  0.07  2  4  1  0.000  0.000  1.000  1.000  0.000  0.000   1.0 |
 |  0.00  0.00  0.07  2  5  1  0.000  0.000  1.000  1.000  0.000  0.000   1.0 |
 |  0.25  0.00  0.07  2  1  1  0.000  0.000  1.000  1.000  0.000  0.000   1.0 |
 |  0.25  0.00  0.07  2  2  1  0.000  0.000  1.000  1.000  0.000  0.000   1.0 |
 |  0.25  0.00  0.07  2  3  1  0.000  0.000  1.000  1.000  0.000  0.000   1.0 |
 |  0.25  0.00  0.07  2  4  1  0.000  0.000  1.000  1.000  0.000  0.000   1.0 |
 |  0.25  0.00  0.07  2  5  1  0.000  0.000  1.000  1.000  0.000  0.000   1.0 |
 |  0.50  0.00  0.07  2  1  1  0.000  0.000  1.000  1.000  0.000  0.000   1.0 |
 |  0.50  0.00  0.07  2  2  1  0.000  0.000  1.000  1.000  0.000  0.000   1.0 |
 |  0.50  0.00  0.07  2  3  1  0.000  0.000  1.000  1.000  0.000  0.000   1.0 |
 |  0.50  0.00  0.07  2  4  1  0.000  0.000  1.000  1.000  0.000  0.000   1.0 |
 |  0.50  0.00  0.07  2  5  1  0.000  0.000  1.000  1.000  0.000  0.000   1.0 |
 |  0.75  0.00  0.07  2  1  1  0.000  0.000  1.000  1.000  0.000  0.000   1.0 |
 |  0.75  0.00  0.07  2  2  1  0.000  0.000  1.000  1.000  0.000  0.000   1.0 |
 |  0.75  0.00  0.07  2  3  1  0.000  0.000  1.000  1.000  0.000  0.000   1.0 |
 |  0.75  0.00  0.07  2  4  1  0.000  0.000  1.000  1.000  0.000  0.000   1.0 |
 |  0.75  0.00  0.07  2  5  1  0.000  0.000  1.000  1.000  0.000  0.000   1.0 |
 |  0.75  0.25  0.07  2  1  1  0.000  0.000  1.000  1.000  0.000  0.000   1.0 |
 |  0.75  0.25  0.07  2  2  1  0.000  0.000  1.000  1.000  0.000  0.000   1.0 |
 |  0.75  0.25  0.07  2  3  1  0.000  0.000  1.000  1.000  0.000  0.000   1.0 |
 |  0.75  0.25  0.07  2  4  1  0.000  0.000  1.000  1.000  0.000  0.000   1.0 |
 |  0.75  0.25  0.07  2  5  1  0.000  0.000  1.000  1.000  0.000  0.000   1.0 |
 |  0.75  0.50  0.07  2  1  1  0.000  0.000  1.000  1.000  0.000  0.000   1.0 |
 |  0.75  0.50  0.07  2  2  1  0.000  0.000  1.000  1.000  0.000  0.000   1.0 |
 |  0.75  0.50  0.07  2  3  1  0.000  0.000  1.000  1.000  0.000  0.000   1.0 |
 |  0.75  0.50  0.07  2  4  1  0.000  0.000  1.000  1.000  0.000  0.000   1.0 |
 |  0.75  0.50  0.07  2  5  1  0.000  0.000  1.000  1.000  0.000  0.000   1.0 |
 |  0.75  0.75  0.07  2  1  1  0.000  0.000  1.000  1.000  0.000  0.000   1.0 |
 |  0.75  0.75  0.07  2  2  1  0.000  0.000  1.000  1.000  0.000  0.000   1.0 |
 |  0.75  0.75  0.07  2  3  1  0.000  0.000  1.000  1.000  0.000  0.000   1.0 |
 |  0.75  0.75  0.07  2  4  1  0.000  0.000  1.000  1.000  0.000  0.000   1.0 |
 |  0.75  0.75  0.07  2  5  1  0.000  0.000  1.000  1.000  0.000  0.000   1.0 |
 |  0.50  0.75  0.07  2  1  1  0.000  0.000  1.000  1.000  0.000  0.000   1.0 |
 |  0.50  0.75  0.07  2  2  1  0.000  0.000  1.000  1.000  0.000  0.000   1.0 |
 |  0.50  0.75  0.07  2  3  1  0.000  0.000  1.000  1.000  0.000  0.000   1.0 |
 |  0.50  0.75  0.07  2  4  1  0.000  0.000  1.000  1.000  0.000  0.000   1.0 |
 |  0.50  0.75  0.07  2  5  1  0.000  0.000  1.000  1.000  0.000  0.000   1.0 |
 |  0.25  0.75  0.07  2  1  1  0.000  0.000  1.000  1.000  0.000  0.000   1.0 |
 |  0.25  0.75  0.07  2  2  1  0.000  0.000  1.000  1.000  0.000  0.000   1.0 |
 |  0.25  0.75  0.07  2  3  1  0.000  0.000  1.000  1.000  0.000  0.000   1.0 |
 |  0.25  0.75  0.07  2  4  1  0.000  0.000  1.000  1.000  0.000  0.000   1.0 |
 |  0.25  0.75  0.07  2  5  1  0.000  0.000  1.000  1.000  0.000  0.000   1.0 |
 |  0.00  0.75  0.07  2  1  1  0.000  0.000  1.000  1.000  0.000  0.000   1.0 |
 |  0.00  0.75  0.07  2  2  1  0.000  0.000  1.000  1.000  0.000  0.000   1.0 |
 |  0.00  0.75  0.07  2  3  1  0.000  0.000  1.000  1.000  0.000  0.000   1.0 |
 |  0.00  0.75  0.07  2  4  1  0.000  0.000  1.000  1.000  0.000  0.000   1.0 |
 |  0.00  0.75  0.07  2  5  1  0.000  0.000  1.000  1.000  0.000  0.000   1.0 |
 |  0.50  0.25  0.07  2  1  1  0.000  0.000  1.000  1.000  0.000  0.000   1.0 |
 |  0.50  0.25  0.07  2  2  1  0.000  0.000  1.000  1.000  0.000  0.000   1.0 |
 |  0.50  0.25  0.07  2  3  1  0.000  0.000  1.000  1.000  0.000  0.000   1.0 |
 |  0.50  0.25  0.07  2  4  1  0.000  0.000  1.000  1.000  0.000  0.000   1.0 |
 |  0.50  0.25  0.07  2  5  1  0.000  0.000  1.000  1.000  0.000  0.000   1.0 |
 |  0.50  0.50  0.07  2  1  1  0.000  0.000  1.000  1.000  0.000  0.000   1.0 |
 |  0.50  0.50  0.07  2  2  1  0.000  0.000  1.000  1.000  0.000  0.000   1.0 |
 |  0.50  0.50  0.07  2  3  1  0.000  0.000  1.000  1.000  0.000  0.000   1.0 |
 |  0.50  0.50  0.07  2  4  1  0.000  0.000  1.000  1.000  0.000  0.000   1.0 |
 |  0.50  0.50  0.07  2  5  1  0.000  0.000  1.000  1.000  0.000  0.000   1.0 |
 |  0.25  0.50  0.07  2  1  1  0.000  0.000  1.000  1.000  0.000  0.000   1.0 |
 |  0.25  0.50  0.07  2  2  1  0.000  0.000  1.000  1.000  0.000  0.000   1.0 |
 |  0.25  0.50  0.07  2  3  1  0.000  0.000  1.000  1.000  0.000  0.000   1.0 |
 |  0.25  0.50  0.07  2  4  1  0.000  0.000  1.000  1.000  0.000  0.000   1.0 |
 |  0.25  0.50  0.07  2  5  1  0.000  0.000  1.000  1.000  0.000  0.000   1.0 |
 |  0.25  0.25  0.07  2  1  1  0.000  0.000  1.000  1.000  0.000  0.000   1.0 |
 |  0.25  0.25  0.07  2  2  1  0.000  0.000  1.000  1.000  0.000  0.000   1.0 |
 |  0.25  0.25  0.07  2  3  1  0.000  0.000  1.000  1.000  0.000  0.000   1.0 |
 |  0.25  0.25  0.07  2  4  1  0.000  0.000  1.000  1.000  0.000  0.000   1.0 |
 |  0.25  0.25  0.07  2  5  1  0.000  0.000  1.000  1.000  0.000  0.000   1.0 |
 |  0.00  0.25  0.07  2  1  1  0.000  0.000  1.000  1.000  0.000  0.000   1.0 |
 |  0.00  0.25  0.07  2  2  1  0.000  0.000  1.000  1.000  0.000  0.000   1.0 |
 |  0.00  0.25  0.07  2  3  1  0.000  0.000  1.000  1.000  0.000  0.000   1.0 |
 |  0.00  0.25  0.07  2  4  1  0.000  0.000  1.000  1.000  0.000  0.000   1.0 |
 |  0.00  0.25  0.07  2  5  1  0.000  0.000  1.000  1.000  0.000  0.000   1.0 |
 |  0.00  0.50  0.07  2  1  1  0.000  0.000  1.000  1.000  0.000  0.000   1.0 |
 |  0.00  0.50  0.07  2  2  1  0.000  0.000  1.000  1.000  0.000  0.000   1.0 |
 |  0.00  0.50  0.07  2  3  1  0.000  0.000  1.000  1.000  0.000  0.000   1.0 |
 |  0.00  0.50  0.07  2  4  1  0.000  0.000  1.000  1.000  0.000  0.000   1.0 |
 |  0.00  0.50  0.07  2  5  1  0.000  0.000  1.000  1.000  0.000  0.000   1.0 |
 |  0.17  0.08  0.00  1  1  1  0.000  0.000  1.000  1.000  0.000  0.000   1.0 |
 |  0.17  0.08  0.00  1  2  1  0.000  0.000  1.000  1.000  0.000  0.000   1.0 |
 |  0.17  0.08  0.00  1  3  1  0.000  0.000  1.000  1.000  0.000  0.000   1.0 |
 |  0.17  0.08  0.14  1  1  1  0.000  0.000  1.000  1.000  0.000  0.000   1.0 |
 |  0.17  0.08  0.14  1  2  1  0.000  0.000  1.000  1.000  0.000  0.000   1.0 |
 |  0.17  0.08  0.14  1  3  1  0.000  0.000  1.000  1.000  0.000  0.000   1.0 |
 |  0.42  0.08  0.00  1  1  1  0.000  0.000  1.000  1.000  0.000  0.000   1.0 |
 |  0.42  0.08  0.00  1  2  1  0.000  0.000  1.000  1.000  0.000  0.000   1.0 |
 |  0.42  0.08  0.00  1  3  1  0.000  0.000  1.000  1.000  0.000  0.000   1.0 |
 |  0.42  0.08  0.14  1  1  1  0.000  0.000  1.000  1.000  0.000  0.000   1.0 |
 |  0.42  0.08  0.14  1  2  1  0.000  0.000  1.000  1.000  0.000  0.000   1.0 |
 |  0.42  0.08  0.14  1  3  1  0.000  0.000  1.000  1.000  0.000  0.000   1.0 |
 |  0.67  0.08  0.00  1  1  1  0.000  0.000  1.000  1.000  0.000  0.000   1.0 |
 |  0.67  0.08  0.00  1  2  1  0.000  0.000  1.000  1.000  0.000  0.000   1.0 |
 |  0.67  0.08  0.00  1  3  1  0.000  0.000  1.000  1.000  0.000  0.000   1.0 |
 |  0.67  0.08  0.14  1  1  1  0.000  0.000  1.000  1.000  0.000  0.000   1.0 |
 |  0.67  0.08  0.14  1  2  1  0.000  0.000  1.000  1.000  0.000  0.000   1.0 |
 |  0.67  0.08  0.14  1  3  1  0.000  0.000  1.000  1.000  0.000  0.000   1.0 |
 |  0.92  0.08  0.00  1  1  1  0.000  0.000  1.000  1.000  0.000  0.000   1.0 |
 |  0.92  0.08  0.00  1  2  1  0.000  0.000  1.000  1.000  0.000  0.000   1.0 |
 |  0.92  0.08  0.00  1  3  1  0.000  0.000  1.000  1.000  0.000  0.000   1.0 |
 |  0.92  0.08  0.14  1  1  1  0.000  0.000  1.000  1.000  0.000  0.000   1.0 |
 |  0.92  0.08  0.14  1  2  1  0.000  0.000  1.000  1.000  0.000  0.000   1.0 |
 |  0.92  0.08  0.14  1  3  1  0.000  0.000  1.000  1.000  0.000  0.000   1.0 |
 |  0.92  0.33  0.00  1  1  1  0.000  0.000  1.000  1.000  0.000  0.000   1.0 |
 |  0.92  0.33  0.00  1  2  1  0.000  0.000  1.000  1.000  0.000  0.000   1.0 |
 |  0.92  0.33  0.00  1  3  1  0.000  0.000  1.000  1.000  0.000  0.000   1.0 |
 |  0.92  0.33  0.14  1  1  1  0.000  0.000  1.000  1.000  0.000  0.000   1.0 |
 |  0.92  0.33  0.14  1  2  1  0.000  0.000  1.000  1.000  0.000  0.000   1.0 |
 |  0.92  0.33  0.14  1  3  1  0.000  0.000  1.000  1.000  0.000  0.000   1.0 |
 |  0.92  0.58  0.00  1  1  1  0.000  0.000  1.000  1.000  0.000  0.000   1.0 |
 |  0.92  0.58  0.00  1  2  1  0.000  0.000  1.000  1.000  0.000  0.000   1.0 |
 |  0.92  0.58  0.00  1  3  1  0.000  0.000  1.000  1.000  0.000  0.000   1.0 |
 |  0.92  0.58  0.14  1  1  1  0.000  0.000  1.000  1.000  0.000  0.000   1.0 |
 |  0.92  0.58  0.14  1  2  1  0.000  0.000  1.000  1.000  0.000  0.000   1.0 |
 |  0.92  0.58  0.14  1  3  1  0.000  0.000  1.000  1.000  0.000  0.000   1.0 |
 |  0.92  0.83  0.00  1  1  1  0.000  0.000  1.000  1.000  0.000  0.000   1.0 |
 |  0.92  0.83  0.00  1  2  1  0.000  0.000  1.000  1.000  0.000  0.000   1.0 |
 |  0.92  0.83  0.00  1  3  1  0.000  0.000  1.000  1.000  0.000  0.000   1.0 |
 |  0.92  0.83  0.14  1  1  1  0.000  0.000  1.000  1.000  0.000  0.000   1.0 |
 |  0.92  0.83  0.14  1  2  1  0.000  0.000  1.000  1.000  0.000  0.000   1.0 |
 |  0.92  0.83  0.14  1  3  1  0.000  0.000  1.000  1.000  0.000  0.000   1.0 |
 |  0.67  0.83  0.00  1  1  1  0.000  0.000  1.000  1.000  0.000  0.000   1.0 |
 |  0.67  0.83  0.00  1  2  1  0.000  0.000  1.000  1.000  0.000  0.000   1.0 |
 |  0.67  0.83  0.00  1  3  1  0.000  0.000  1.000  1.000  0.000  0.000   1.0 |
 |  0.67  0.83  0.14  1  1  1  0.000  0.000  1.000  1.000  0.000  0.000   1.0 |
 |  0.67  0.83  0.14  1  2  1  0.000  0.000  1.000  1.000  0.000  0.000   1.0 |
 |  0.67  0.83  0.14  1  3  1  0.000  0.000  1.000  1.000  0.000  0.000   1.0 |
 |  0.42  0.83  0.00  1  1  1  0.000  0.000  1.000  1.000  0.000  0.000   1.0 |
 |  0.42  0.83  0.00  1  2  1  0.000  0.000  1.000  1.000  0.000  0.000   1.0 |
 |  0.42  0.83  0.00  1  3  1  0.000  0.000  1.000  1.000  0.000  0.000   1.0 |
 |  0.42  0.83  0.14  1  1  1  0.000  0.000  1.000  1.000  0.000  0.000   1.0 |
 |  0.42  0.83  0.14  1  2  1  0.000  0.000  1.000  1.000  0.000  0.000   1.0 |
 |  0.42  0.83  0.14  1  3  1  0.000  0.000  1.000  1.000  0.000  0.000   1.0 |
 |  0.17  0.83  0.00  1  1  1  0.000  0.000  1.000  1.000  0.000  0.000   1.0 |
 |  0.17  0.83  0.00  1  2  1  0.000  0.000  1.000  1.000  0.000  0.000   1.0 |
 |  0.17  0.83  0.00  1  3  1  0.000  0.000  1.000  1.000  0.000  0.000   1.0 |
 |  0.17  0.83  0.14  1  1  1  0.000  0.000  1.000  1.000  0.000  0.000   1.0 |
 |  0.17  0.83  0.14  1  2  1  0.000  0.000  1.000  1.000  0.000  0.000   1.0 |
 |  0.17  0.83  0.14  1  3  1  0.000  0.000  1.000  1.000  0.000  0.000   1.0 |
 |  0.67  0.33  0.00  1  1  1  0.000  0.000  1.000  1.000  0.000  0.000   1.0 |
 |  0.67  0.33  0.00  1  2  1  0.000  0.000  1.000  1.000  0.000  0.000   1.0 |
 |  0.67  0.33  0.00  1  3  1  0.000  0.000  1.000  1.000  0.000  0.000   1.0 |
 |  0.67  0.33  0.14  1  1  1  0.000  0.000  1.000  1.000  0.000  0.000   1.0 |
 |  0.67  0.33  0.14  1  2  1  0.000  0.000  1.000  1.000  0.000  0.000   1.0 |
 |  0.67  0.33  0.14  1  3  1  0.000  0.000  1.000  1.000  0.000  0.000   1.0 |
 |  0.67  0.58  0.00  1  1  1  0.000  0.000  1.000  1.000  0.000  0.000   1.0 |
 |  0.67  0.58  0.00  1  2  1  0.000  0.000  1.000  1.000  0.000  0.000   1.0 |
 |  0.67  0.58  0.00  1  3  1  0.000  0.000  1.000  1.000  0.000  0.000   1.0 |
 |  0.67  0.58  0.14  1  1  1  0.000  0.000  1.000  1.000  0.000  0.000   1.0 |
 |  0.67  0.58  0.14  1  2  1  0.000  0.000  1.000  1.000  0.000  0.000   1.0 |
 |  0.67  0.58  0.14  1  3  1  0.000  0.000  1.000  1.000  0.000  0.000   1.0 |
 |  0.42  0.58  0.00  1  1  1  0.000  0.000  1.000  1.000  0.000  0.000   1.0 |
 |  0.42  0.58  0.00  1  2  1  0.000  0.000  1.000  1.000  0.000  0.000   1.0 |
 |  0.42  0.58  0.00  1  3  1  0.000  0.000  1.000  1.000  0.000  0.000   1.0 |
 |  0.42  0.58  0.14  1  1  1  0.000  0.000  1.000  1.000  0.000  0.000   1.0 |
 |  0.42  0.58  0.14  1  2  1  0.000  0.000  1.000  1.000  0.000  0.000   1.0 |
 |  0.42  0.58  0.14  1  3  1  0.000  0.000  1.000  1.000  0.000  0.000   1.0 |
 |  0.42  0.33  0.00  1  1  1  0.000  0.000  1.000  1.000  0.000  0.000   1.0 |
 |  0.42  0.33  0.00  1  2  1  0.000  0.000  1.000  1.000  0.000  0.000   1.0 |
 |  0.42  0.33  0.00  1  3  1  0.000  0.000  1.000  1.000  0.000  0.000   1.0 |
 |  0.42  0.33  0.14  1  1  1  0.000  0.000  1.000  1.000  0.000  0.000   1.0 |
 |  0.42  0.33  0.14  1  2  1  0.000  0.000  1.000  1.000  0.000  0.000   1.0 |
 |  0.42  0.33  0.14  1  3  1  0.000  0.000  1.000  1.000  0.000  0.000   1.0 |
 |  0.17  0.33  0.00  1  1  1  0.000  0.000  1.000  1.000  0.000  0.000   1.0 |
 |  0.17  0.33  0.00  1  2  1  0.000  0.000  1.000  1.000  0.000  0.000   1.0 |
 |  0.17  0.33  0.00  1  3  1  0.000  0.000  1.000  1.000  0.000  0.000   1.0 |
 |  0.17  0.33  0.14  1  1  1  0.000  0.000  1.000  1.000  0.000  0.000   1.0 |
 |  0.17  0.33  0.14  1  2  1  0.000  0.000  1.000  1.000  0.000  0.000   1.0 |
 |  0.17  0.33  0.14  1  3  1  0.000  0.000  1.000  1.000  0.000  0.000   1.0 |
 |  0.17  0.58  0.00  1  1  1  0.000  0.000  1.000  1.000  0.000  0.000   1.0 |
 |  0.17  0.58  0.00  1  2  1  0.000  0.000  1.000  1.000  0.000  0.000   1.0 |
 |  0.17  0.58  0.00  1  3  1  0.000  0.000  1.000  1.000  0.000  0.000   1.0 |
 |  0.17  0.58  0.14  1  1  1  0.000  0.000  1.000  1.000  0.000  0.000   1.0 |
 |  0.17  0.58  0.14  1  2  1  0.000  0.000  1.000  1.000  0.000  0.000   1.0 |
 |  0.17  0.58  0.14  1  3  1  0.000  0.000  1.000  1.000  0.000  0.000   1.0 |
 +----------------------------------------------------------------------------+
  
                                ------------
                                K-POINT GRID
                                ------------
  
             Grid size =  3 x  3 x  1      Total points =    9
  
 *----------------------------------------------------------------------------*
 | k-point      Fractional Coordinate        Cartesian Coordinate (Ang^-1)    |
 +----------------------------------------------------------------------------+
 |     1    0.00000   0.00000   0.00000   |    0.00000   0.00000   0.00000    |
 |     2    0.00000   0.33333   0.00000   |    0.00000   0.17545   0.00000    |
 |     3    0.00000   0.66667   0.00000   |    0.00000   0.35090   0.00000    |
 |     4    0.33333   0.00000   0.00000   |    0.15194   0.08772   0.00000    |
 |     5    0.33333   0.33333   0.00000   |    0.15194   0.26317   0.00000    |
 |     6    0.33333   0.66667   0.00000   |    0.15194   0.43862   0.00000    |
 |     7    0.66667   0.00000   0.00000   |    0.30388   0.17545   0.00000    |
 |     8    0.66667   0.33333   0.00000   |    0.30388   0.35090   0.00000    |
 |     9    0.66667   0.66667   0.00000   |    0.30388   0.52634   0.00000    |
 *----------------------------------------------------------------------------*
  
  
 *---------------------------------- MAIN ------------------------------------*
 |  Number of Wannier Functions               :               176             |
 |  Number of Objective Wannier Functions     :               176             |
 |  Number of input Bloch states              :               300             |
 |  Output verbosity (1=low, 5=high)          :                 3             |
 |  Timing Level (1=low, 5=high)              :                 1             |
 |  Optimisation (0=memory, 3=speed)          :                 3             |
 |  Length Unit                               :               Ang             |
 |  Post-processing setup (write *.nnkp)      :                 F             |
 |  Using Gamma-only branch of algorithms     :                 F             |
 |  CP code post-processing                   :                 F             |
 |  Wavefunction (UNK) file-type              :       unformatted             |
 |  Wavefunction spin channel                 :                up             |
 *----------------------------------------------------------------------------*
 *------------------------------- WANNIERISE ---------------------------------*
 |  Total number of iterations                :               500             |
 |  Number of CG steps before reset           :                 5             |
 |  Trial step length for line search         :             2.000             |
 |  Convergence tolerence                     :         0.100E-09             |
 |  Convergence window                        :                -1             |
 |  Iterations between writing output         :                50             |
 |  Iterations between backing up to disk     :               100             |
 |  Write r^2_nm to file                      :                 F             |
 |  Write xyz WF centres to file              :                 T             |
 |  Write on-site energies <0n|H|0n> to file  :                 F             |
 |  Use guiding centre to control phases      :                 T             |
 |  Use phases for initial projections        :                 F             |
 |  Iterations before starting guiding centres:                 0             |
 |  Iterations between using guiding centres  :                 1             |
 |  Perform selective localization            :                 F             |
 |  Use constrains in selective localization  :                 F             |
 |  Value of the Lagrange multiplier          :         0.100E+01             |
 *----------------------------------------------------------------------------*
 *------------------------------- DISENTANGLE --------------------------------*
 |  Using band disentanglement                :                 T             |
 |  Total number of iterations                :              4000             |
 |  Mixing ratio                              :             0.500             |
 |  Convergence tolerence                     :         1.000E-10             |
 |  Convergence window                        :                 3             |
 *----------------------------------------------------------------------------*
 *-------------------------------- PLOTTING ----------------------------------*
 |  Plotting Wannier functions                :                 F             |
 |   Size of supercell for plotting           :     2x    2x    2             |
 |   Plotting mode (molecule or crystal)      :           crystal             |
 |   Plotting format                          :          xcrysden             |
 |   Plot radius                              :             3.500             |
 |   Plot scale                               :             1.000             |
 *----------------------------------------------------------------------------*
 |  Plotting Fermi surface                    :                 F             |
 |   Number of plotting points (along b_1)    :                50             |
 |   Plotting format                          :          xcrysden             |
 *----------------------------------------------------------------------------*
 |  Plotting interpolated bandstructure       :                 T             |
 |   Number of K-path sections                :                 3             |
 |   Divisions along first K-path section     :               100             |
 |   Output format                            :           gnuplot             |
 |   Output mode                              :               s-k             |
 *----------------------------------------------------------------------------*
 |   K-space path sections:                                                   |
 |    From: Γ      0.000  0.000  0.000     To: K       0.333  0.333  0.000   |
 |    From: K       0.333  0.333  0.000     To: M       0.500  0.000  0.000   |
 |    From: M       0.500  0.000  0.000     To: Γ      0.000  0.000  0.000   |
 *----------------------------------------------------------------------------*
 |  Plotting Hamiltonian in WF basis          :                 T             |
 *----------------------------------------------------------------------------*
 |  Writing data for Van der Waals post-proc  :                 F             |
 *----------------------------------------------------------------------------*
 *------------------------------- TRANSPORT ----------------------------------*
 |  Transport mode                            :              bulk             |
 |   Hamiltonian from external files          :                 F             |
 |   System extended in                       :              none             |
 |   Centre of the unit cell to which WF are translated (fract. coords):      |
 |                                       0.000000,    0.000000,    0.000000   |
 |  Fermi energy (eV)                         :             0.000             |
 *----------------------------------------------------------------------------*
 Time to read parameters        0.010 (sec)

 *---------------------------------- K-MESH ----------------------------------*
 +----------------------------------------------------------------------------+
 |                    Distance to Nearest-Neighbour Shells                    |
 |                    ------------------------------------                    |
 |          Shell             Distance (Ang^-1)          Multiplicity         |
 |          -----             -----------------          ------------         |
 |             1                   0.175448                      6            |
 |             2                   0.265883                      2            |
 |             3                   0.303884                      6            |
 |             4                   0.318552                     12            |
 |             5                   0.350895                      6            |
 |             6                   0.403781                     12            |
 |             7                   0.440251                     12            |
 |             8                   0.464191                     12            |
 |             9                   0.526343                      6            |
 |            10                   0.531765                      2            |
 |            11                   0.534945                     24            |
 |            12                   0.559961                     12            |
 |            13                   0.589686                     12            |
 |            14                   0.607768                      6            |
 |            15                   0.612470                     12            |
 |            16                   0.632585                     12            |
 |            17                   0.637104                     12            |
 |            18                   0.663382                     12            |
 |            19                   0.686191                     24            |
 |            20                   0.701790                      6            |
 |            21                   0.705866                     24            |
 |            22                   0.748205                     12            |
 |            23                   0.750469                     12            |
 |            24                   0.764758                     12            |
 |            25                   0.797648                      2            |
 |            26                   0.804002                     12            |
 |            27                   0.807562                     12            |
 |            28                   0.809660                     24            |
 |            29                   0.816715                     12            |
 |            30                   0.826401                     24            |
 |            31                   0.846825                     24            |
 |            32                   0.853573                     12            |
 |            33                   0.871418                     12            |
 |            34                   0.877238                      6            |
 |            35                   0.880502                     12            |
 |            36                   0.911652                      6            |
 +----------------------------------------------------------------------------+
 | The b-vectors are chosen automatically                                     |
 | Shell:  1 Multiplicity:  6                                                 |
 | b-vector 1 :        0.000000    0.175448    0.000000      (Ang^-1)         |
 | b-vector 2 :        0.151942    0.087724    0.000000      (Ang^-1)         |
 | b-vector 3 :        0.000000   -0.175448    0.000000      (Ang^-1)         |
 | b-vector 4 :        0.151942   -0.087724    0.000000      (Ang^-1)         |
 | b-vector 5 :       -0.151942   -0.087724    0.000000      (Ang^-1)         |
 | b-vector 6 :       -0.151942    0.087724    0.000000      (Ang^-1)         |
 | Shell:  1 w_b   10.8288937      (Ang^2)                                    |
 | B1 condition is not satisfied: Adding another shell                        |
 | Shell:  2 Multiplicity:  2                                                 |
 | b-vector 1 :        0.000000    0.000000    0.265883      (Ang^-1)         |
 | b-vector 2 :        0.000000    0.000000   -0.265883      (Ang^-1)         |
 | Shell:  1 w_b   10.8288937      (Ang^2)                                    |
 | Shell:  2 w_b    7.0727819      (Ang^2)                                    |
 | The following shells are used:   1,  2                                     |
 +----------------------------------------------------------------------------+
 |                        Shell   # Nearest-Neighbours                        |
 |                        -----   --------------------                        |
 |                          1               6                                 |
 |                          2               2                                 |
 +----------------------------------------------------------------------------+
 | Completeness relation is fully satisfied [Eq. (B1), PRB 56, 12847 (1997)]  |
 +----------------------------------------------------------------------------+
 |                  b_k Vectors (Ang^-1) and Weights (Ang^2)                  |
 |                  ----------------------------------------                  |
 |            No.         b_k(x)      b_k(y)      b_k(z)        w_b           |
 |            ---        --------------------------------     --------        |
 |             1         0.000000    0.175448    0.000000    10.828894        |
 |             2         0.151942    0.087724    0.000000    10.828894        |
 |             3         0.000000   -0.175448    0.000000    10.828894        |
 |             4         0.151942   -0.087724    0.000000    10.828894        |
 |             5        -0.151942   -0.087724    0.000000    10.828894        |
 |             6        -0.151942    0.087724    0.000000    10.828894        |
 |             7         0.000000    0.000000    0.265883     7.072782        |
 |             8         0.000000    0.000000   -0.265883     7.072782        |
 +----------------------------------------------------------------------------+
 |                           b_k Directions (Ang^-1)                          |
 |                           -----------------------                          |
 |            No.           x           y           z                         |
 |            ---        --------------------------------                     |
 |             1         0.000000    0.175448    0.000000                     |
 |             2         0.151942    0.087724    0.000000                     |
 |             3         0.151942   -0.087724    0.000000                     |
 |             4         0.000000    0.000000    0.265883                     |
 +----------------------------------------------------------------------------+
  
 Time to get kmesh              0.011 (sec)
 *============================================================================*
 |                              MEMORY ESTIMATE                               |
 |         Maximum RAM allocated during each phase of the calculation         |
 *============================================================================*
 |                        Disentanglement          151.78 Mb                  |
 |                            Wannierise:           95.30 Mb                  |
 |                                                                            |
 |   N.B. by setting optimisation=0 memory usage will be reduced to:          |
 |                        Disentanglement          146.64 Mb                  |
 |                            Wannierise:           61.27 Mb                  |
 |   However, this will result in more i/o and slow down the calculation      |
 |                          plot_wannier:           95.30 Mb                  |
 *----------------------------------------------------------------------------*
  
 Starting a new Wannier90 calculation ...


 Reading overlaps from 1Fe_initialconf.up.mmn    :  Created on  4Oct2023 at 14:49:46

 Reading projections from 1Fe_initialconf.up.amn :  Created on  4Oct2023 at 14:47:43

 Time to read overlaps          6.105 (sec)

 *------------------------------- DISENTANGLE --------------------------------*
 +----------------------------------------------------------------------------+
 |                              Energy  Windows                               |
 |                              ---------------                               |
 |                   Outer:  -30.00000  to   30.00000  (eV)                   |
 |                   Inner:   -6.00000  to    2.50000  (eV)                   |
 +----------------------------------------------------------------------------+
 |                        K-points with Frozen States                         |
 |                        ---------------------------                         |
 |     1     2     3     4     5     6     7     8     9                      |
 +----------------------------------------------------------------------------+
   Number of target bands to extract:  176
 +----------------------------------------------------------------------------+
 |                                  Windows                                   |
 |                                  -------                                   |
 |               K-point      Ndimwin     Ndimfroz    Nfirstwin               |
 |               ----------------------------------------------               |
 |                   1          236          163          65                  |
 |                   2          236          157          65                  |
 |                   3          236          157          65                  |
 |                   4          236          157          65                  |
 |                   5          236          151          65                  |
 |                   6          236          157          65                  |
 |                   7          236          157          65                  |
 |                   8          236          157          65                  |
 |                   9          236          151          65                  |
 +----------------------------------------------------------------------------+

                   Unitarised projection of Wannier functions                  
                   ------------------------------------------                  
   A_mn = <psi_m|g_n> --> S = A.A^+ --> U = S^-1/2.A
   In dis_project... done
   Using an inner window (linner = T)
   In dis_proj_froz...
 K-point   1 ndimwin: 236 we want the 13 leading eigenvector(s) of QPQ
  lambda(  1)= -0.000000000000
  lambda(  2)= -0.000000000000
  lambda(  3)= -0.000000000000
  lambda(  4)= -0.000000000000
  lambda(  5)= -0.000000000000
  lambda(  6)= -0.000000000000
  lambda(  7)= -0.000000000000
  lambda(  8)= -0.000000000000
  lambda(  9)= -0.000000000000
  lambda( 10)= -0.000000000000
  lambda( 11)= -0.000000000000
  lambda( 12)= -0.000000000000
  lambda( 13)= -0.000000000000
  lambda( 14)= -0.000000000000
  lambda( 15)= -0.000000000000
  lambda( 16)= -0.000000000000
  lambda( 17)= -0.000000000000
  lambda( 18)= -0.000000000000
  lambda( 19)= -0.000000000000
  lambda( 20)= -0.000000000000
  lambda( 21)= -0.000000000000
  lambda( 22)= -0.000000000000
  lambda( 23)= -0.000000000000
  lambda( 24)= -0.000000000000
  lambda( 25)= -0.000000000000
  lambda( 26)= -0.000000000000
  lambda( 27)= -0.000000000000
  lambda( 28)= -0.000000000000
  lambda( 29)= -0.000000000000
  lambda( 30)= -0.000000000000
  lambda( 31)= -0.000000000000
  lambda( 32)= -0.000000000000
  lambda( 33)= -0.000000000000
  lambda( 34)= -0.000000000000
  lambda( 35)= -0.000000000000
  lambda( 36)= -0.000000000000
  lambda( 37)= -0.000000000000
  lambda( 38)= -0.000000000000
  lambda( 39)= -0.000000000000
  lambda( 40)= -0.000000000000
  lambda( 41)= -0.000000000000
  lambda( 42)= -0.000000000000
  lambda( 43)= -0.000000000000
  lambda( 44)= -0.000000000000
  lambda( 45)= -0.000000000000
  lambda( 46)= -0.000000000000
  lambda( 47)= -0.000000000000
  lambda( 48)= -0.000000000000
  lambda( 49)= -0.000000000000
  lambda( 50)= -0.000000000000
  lambda( 51)= -0.000000000000
  lambda( 52)= -0.000000000000
  lambda( 53)= -0.000000000000
  lambda( 54)= -0.000000000000
  lambda( 55)= -0.000000000000
  lambda( 56)= -0.000000000000
  lambda( 57)= -0.000000000000
  lambda( 58)= -0.000000000000
  lambda( 59)= -0.000000000000
  lambda( 60)= -0.000000000000
  lambda( 61)= -0.000000000000
  lambda( 62)= -0.000000000000
  lambda( 63)= -0.000000000000
  lambda( 64)= -0.000000000000
  lambda( 65)= -0.000000000000
  lambda( 66)= -0.000000000000
  lambda( 67)= -0.000000000000
  lambda( 68)= -0.000000000000
  lambda( 69)= -0.000000000000
  lambda( 70)= -0.000000000000
  lambda( 71)= -0.000000000000
  lambda( 72)= -0.000000000000
  lambda( 73)= -0.000000000000
  lambda( 74)= -0.000000000000
  lambda( 75)= -0.000000000000
  lambda( 76)= -0.000000000000
  lambda( 77)= -0.000000000000
  lambda( 78)= -0.000000000000
  lambda( 79)= -0.000000000000
  lambda( 80)= -0.000000000000
  lambda( 81)= -0.000000000000
  lambda( 82)= -0.000000000000
  lambda( 83)=  0.000000000000
  lambda( 84)=  0.000000000000
  lambda( 85)=  0.000000000000
  lambda( 86)=  0.000000000000
  lambda( 87)=  0.000000000000
  lambda( 88)=  0.000000000000
  lambda( 89)=  0.000000000000
  lambda( 90)=  0.000000000000
  lambda( 91)=  0.000000000000
  lambda( 92)=  0.000000000000
  lambda( 93)=  0.000000000000
  lambda( 94)=  0.000000000000
  lambda( 95)=  0.000000000000
  lambda( 96)=  0.000000000000
  lambda( 97)=  0.000000000000
  lambda( 98)=  0.000000000000
  lambda( 99)=  0.000000000000
  lambda(100)=  0.000000000000
  lambda(101)=  0.000000000000
  lambda(102)=  0.000000000000
  lambda(103)=  0.000000000000
  lambda(104)=  0.000000000000
  lambda(105)=  0.000000000000
  lambda(106)=  0.000000000000
  lambda(107)=  0.000000000000
  lambda(108)=  0.000000000000
  lambda(109)=  0.000000000000
  lambda(110)=  0.000000000000
  lambda(111)=  0.000000000000
  lambda(112)=  0.000000000000
  lambda(113)=  0.000000000000
  lambda(114)=  0.000000000000
  lambda(115)=  0.000000000000
  lambda(116)=  0.000000000000
  lambda(117)=  0.000000000000
  lambda(118)=  0.000000000000
  lambda(119)=  0.000000000000
  lambda(120)=  0.000000000000
  lambda(121)=  0.000000000000
  lambda(122)=  0.000000000000
  lambda(123)=  0.000000000000
  lambda(124)=  0.000000000000
  lambda(125)=  0.000000000000
  lambda(126)=  0.000000000000
  lambda(127)=  0.000000000000
  lambda(128)=  0.000000000000
  lambda(129)=  0.000000000000
  lambda(130)=  0.000000000000
  lambda(131)=  0.000000000000
  lambda(132)=  0.000000000000
  lambda(133)=  0.000000000000
  lambda(134)=  0.000000000000
  lambda(135)=  0.000000000000
  lambda(136)=  0.000000000000
  lambda(137)=  0.000000000000
  lambda(138)=  0.000000000000
  lambda(139)=  0.000000000000
  lambda(140)=  0.000000000000
  lambda(141)=  0.000000000000
  lambda(142)=  0.000000000000
  lambda(143)=  0.000000000000
  lambda(144)=  0.000000000000
  lambda(145)=  0.000000000000
  lambda(146)=  0.000000000000
  lambda(147)=  0.000000000000
  lambda(148)=  0.000000000000
  lambda(149)=  0.000000000000
  lambda(150)=  0.000000000000
  lambda(151)=  0.000000000000
  lambda(152)=  0.000000000000
  lambda(153)=  0.000000000000
  lambda(154)=  0.000000000000
  lambda(155)=  0.000000000000
  lambda(156)=  0.000000000000
  lambda(157)=  0.000000000000
  lambda(158)=  0.000000000000
  lambda(159)=  0.000000000000
  lambda(160)=  0.000000000000
  lambda(161)=  0.000000000000
  lambda(162)=  0.000000000000
  lambda(163)=  0.000000000000
  lambda(164)=  0.000000000000
  lambda(165)=  0.000000000001
  lambda(166)=  0.000000000063
  lambda(167)=  0.000000000275
  lambda(168)=  0.000000004424
  lambda(169)=  0.000781436050
  lambda(170)=  0.000781506403
  lambda(171)=  0.000781530094
  lambda(172)=  0.000781628239
  lambda(173)=  0.000781653159
  lambda(174)=  0.000781719008
  lambda(175)=  0.015956798762
  lambda(176)=  0.015956837620
  lambda(177)=  0.015957240400
  lambda(178)=  0.015957326465
  lambda(179)=  0.015957522142
  lambda(180)=  0.015957576479
  lambda(181)=  0.019823642841
  lambda(182)=  0.031144662214
  lambda(183)=  0.031180525942
  lambda(184)=  0.031180670273
  lambda(185)=  0.039608690287
  lambda(186)=  0.039608851442
  lambda(187)=  0.039609688094
  lambda(188)=  0.039609813068
  lambda(189)=  0.039612786833
  lambda(190)=  0.039612930933
  lambda(191)=  0.043268195848
  lambda(192)=  0.079090569752
  lambda(193)=  0.079104064802
  lambda(194)=  0.079104139058
  lambda(195)=  0.089609357957
  lambda(196)=  0.089609370497
  lambda(197)=  0.089618353419
  lambda(198)=  0.089618389644
  lambda(199)=  0.089634051921
  lambda(200)=  0.089634064481
  lambda(201)=  0.091605719442
  lambda(202)=  0.091609162469
  lambda(203)=  0.108924719389
  lambda(204)=  0.108925196115
  lambda(205)=  0.108925455228
  lambda(206)=  0.108925832961
  lambda(207)=  0.121198773407
  lambda(208)=  0.121199118491
  lambda(209)=  0.121203703778
  lambda(210)=  0.121204245373
  lambda(211)=  0.121206115403
  lambda(212)=  0.121206699511
  lambda(213)=  0.140766271181
  lambda(214)=  0.140776959813
  lambda(215)=  0.150586478664
  lambda(216)=  0.150586549867
  lambda(217)=  0.150586903840
  lambda(218)=  0.150587031087
  lambda(219)=  0.150593150451
  lambda(220)=  0.150593248965
  lambda(221)=  0.200190489431
  lambda(222)=  0.200190558465
  lambda(223)=  0.200197172439
  lambda(224)=  1.000000000000
  lambda(225)=  1.000000000000
  lambda(226)=  1.000000000000
  lambda(227)=  1.000000000000
  lambda(228)=  1.000000000000
  lambda(229)=  1.000000000000
  lambda(230)=  1.000000000000
  lambda(231)=  1.000000000000
  lambda(232)=  1.000000000000
  lambda(233)=  1.000000000000
  lambda(234)=  1.000000000000
  lambda(235)=  1.000000000000
  lambda(236)=  1.000000000000

 K-point   2 ndimwin: 236 we want the 19 leading eigenvector(s) of QPQ
  lambda(  1)= -0.000000000000
  lambda(  2)= -0.000000000000
  lambda(  3)= -0.000000000000
  lambda(  4)= -0.000000000000
  lambda(  5)= -0.000000000000
  lambda(  6)= -0.000000000000
  lambda(  7)= -0.000000000000
  lambda(  8)= -0.000000000000
  lambda(  9)= -0.000000000000
  lambda( 10)= -0.000000000000
  lambda( 11)= -0.000000000000
  lambda( 12)= -0.000000000000
  lambda( 13)= -0.000000000000
  lambda( 14)= -0.000000000000
  lambda( 15)= -0.000000000000
  lambda( 16)= -0.000000000000
  lambda( 17)= -0.000000000000
  lambda( 18)= -0.000000000000
  lambda( 19)= -0.000000000000
  lambda( 20)= -0.000000000000
  lambda( 21)= -0.000000000000
  lambda( 22)= -0.000000000000
  lambda( 23)= -0.000000000000
  lambda( 24)= -0.000000000000
  lambda( 25)= -0.000000000000
  lambda( 26)= -0.000000000000
  lambda( 27)= -0.000000000000
  lambda( 28)= -0.000000000000
  lambda( 29)= -0.000000000000
  lambda( 30)= -0.000000000000
  lambda( 31)= -0.000000000000
  lambda( 32)= -0.000000000000
  lambda( 33)= -0.000000000000
  lambda( 34)= -0.000000000000
  lambda( 35)= -0.000000000000
  lambda( 36)= -0.000000000000
  lambda( 37)= -0.000000000000
  lambda( 38)= -0.000000000000
  lambda( 39)= -0.000000000000
  lambda( 40)= -0.000000000000
  lambda( 41)= -0.000000000000
  lambda( 42)= -0.000000000000
  lambda( 43)= -0.000000000000
  lambda( 44)= -0.000000000000
  lambda( 45)= -0.000000000000
  lambda( 46)= -0.000000000000
  lambda( 47)= -0.000000000000
  lambda( 48)= -0.000000000000
  lambda( 49)= -0.000000000000
  lambda( 50)= -0.000000000000
  lambda( 51)= -0.000000000000
  lambda( 52)= -0.000000000000
  lambda( 53)= -0.000000000000
  lambda( 54)= -0.000000000000
  lambda( 55)= -0.000000000000
  lambda( 56)= -0.000000000000
  lambda( 57)= -0.000000000000
  lambda( 58)= -0.000000000000
  lambda( 59)= -0.000000000000
  lambda( 60)= -0.000000000000
  lambda( 61)= -0.000000000000
  lambda( 62)= -0.000000000000
  lambda( 63)= -0.000000000000
  lambda( 64)= -0.000000000000
  lambda( 65)= -0.000000000000
  lambda( 66)= -0.000000000000
  lambda( 67)= -0.000000000000
  lambda( 68)= -0.000000000000
  lambda( 69)= -0.000000000000
  lambda( 70)= -0.000000000000
  lambda( 71)= -0.000000000000
  lambda( 72)= -0.000000000000
  lambda( 73)= -0.000000000000
  lambda( 74)= -0.000000000000
  lambda( 75)= -0.000000000000
  lambda( 76)= -0.000000000000
  lambda( 77)= -0.000000000000
  lambda( 78)= -0.000000000000
  lambda( 79)=  0.000000000000
  lambda( 80)=  0.000000000000
  lambda( 81)=  0.000000000000
  lambda( 82)=  0.000000000000
  lambda( 83)=  0.000000000000
  lambda( 84)=  0.000000000000
  lambda( 85)=  0.000000000000
  lambda( 86)=  0.000000000000
  lambda( 87)=  0.000000000000
  lambda( 88)=  0.000000000000
  lambda( 89)=  0.000000000000
  lambda( 90)=  0.000000000000
  lambda( 91)=  0.000000000000
  lambda( 92)=  0.000000000000
  lambda( 93)=  0.000000000000
  lambda( 94)=  0.000000000000
  lambda( 95)=  0.000000000000
  lambda( 96)=  0.000000000000
  lambda( 97)=  0.000000000000
  lambda( 98)=  0.000000000000
  lambda( 99)=  0.000000000000
  lambda(100)=  0.000000000000
  lambda(101)=  0.000000000000
  lambda(102)=  0.000000000000
  lambda(103)=  0.000000000000
  lambda(104)=  0.000000000000
  lambda(105)=  0.000000000000
  lambda(106)=  0.000000000000
  lambda(107)=  0.000000000000
  lambda(108)=  0.000000000000
  lambda(109)=  0.000000000000
  lambda(110)=  0.000000000000
  lambda(111)=  0.000000000000
  lambda(112)=  0.000000000000
  lambda(113)=  0.000000000000
  lambda(114)=  0.000000000000
  lambda(115)=  0.000000000000
  lambda(116)=  0.000000000000
  lambda(117)=  0.000000000000
  lambda(118)=  0.000000000000
  lambda(119)=  0.000000000000
  lambda(120)=  0.000000000000
  lambda(121)=  0.000000000000
  lambda(122)=  0.000000000000
  lambda(123)=  0.000000000000
  lambda(124)=  0.000000000000
  lambda(125)=  0.000000000000
  lambda(126)=  0.000000000000
  lambda(127)=  0.000000000000
  lambda(128)=  0.000000000000
  lambda(129)=  0.000000000000
  lambda(130)=  0.000000000000
  lambda(131)=  0.000000000000
  lambda(132)=  0.000000000000
  lambda(133)=  0.000000000000
  lambda(134)=  0.000000000000
  lambda(135)=  0.000000000000
  lambda(136)=  0.000000000000
  lambda(137)=  0.000000000000
  lambda(138)=  0.000000000000
  lambda(139)=  0.000000000000
  lambda(140)=  0.000000000000
  lambda(141)=  0.000000000000
  lambda(142)=  0.000000000000
  lambda(143)=  0.000000000000
  lambda(144)=  0.000000000000
  lambda(145)=  0.000000000000
  lambda(146)=  0.000000000000
  lambda(147)=  0.000000000000
  lambda(148)=  0.000000000000
  lambda(149)=  0.000000000000
  lambda(150)=  0.000000000000
  lambda(151)=  0.000000000000
  lambda(152)=  0.000000000000
  lambda(153)=  0.000000000000
  lambda(154)=  0.000000000000
  lambda(155)=  0.000000000000
  lambda(156)=  0.000000000000
  lambda(157)=  0.000000000000
  lambda(158)=  0.000000000004
  lambda(159)=  0.000000000014
  lambda(160)=  0.000009292516
  lambda(161)=  0.000024807898
  lambda(162)=  0.000474363001
  lambda(163)=  0.000474364669
  lambda(164)=  0.005979594635
  lambda(165)=  0.007173406462
  lambda(166)=  0.015230448860
  lambda(167)=  0.015230593845
  lambda(168)=  0.016199624813
  lambda(169)=  0.018155279611
  lambda(170)=  0.018155298357
  lambda(171)=  0.020224834973
  lambda(172)=  0.026595582393
  lambda(173)=  0.030621386274
  lambda(174)=  0.030623601634
  lambda(175)=  0.042582532933
  lambda(176)=  0.042614745315
  lambda(177)=  0.044764990181
  lambda(178)=  0.045632073797
  lambda(179)=  0.045712353681
  lambda(180)=  0.048141656872
  lambda(181)=  0.048751534346
  lambda(182)=  0.048752708852
  lambda(183)=  0.062733533406
  lambda(184)=  0.062756345646
  lambda(185)=  0.062973546414
  lambda(186)=  0.062979188734
  lambda(187)=  0.068979650992
  lambda(188)=  0.080564005975
  lambda(189)=  0.080566529076
  lambda(190)=  0.092168510846
  lambda(191)=  0.092344807072
  lambda(192)=  0.092360190505
  lambda(193)=  0.097750465534
  lambda(194)=  0.097751937996
  lambda(195)=  0.100444108383
  lambda(196)=  0.102897258193
  lambda(197)=  0.112560956195
  lambda(198)=  0.112561467882
  lambda(199)=  0.117163652936
  lambda(200)=  0.118736907843
  lambda(201)=  0.118740022314
  lambda(202)=  0.119103323761
  lambda(203)=  0.119105419074
  lambda(204)=  0.119476075998
  lambda(205)=  0.119489613217
  lambda(206)=  0.122928695074
  lambda(207)=  0.122937240138
  lambda(208)=  0.126171076401
  lambda(209)=  0.126173603566
  lambda(210)=  0.134117624015
  lambda(211)=  0.134120186158
  lambda(212)=  0.149420175511
  lambda(213)=  0.149420328590
  lambda(214)=  0.170081706715
  lambda(215)=  0.170087552135
  lambda(216)=  0.175009384080
  lambda(217)=  0.193938560602
  lambda(218)=  1.000000000000
  lambda(219)=  1.000000000000
  lambda(220)=  1.000000000000
  lambda(221)=  1.000000000000
  lambda(222)=  1.000000000000
  lambda(223)=  1.000000000000
  lambda(224)=  1.000000000000
  lambda(225)=  1.000000000000
  lambda(226)=  1.000000000000
  lambda(227)=  1.000000000000
  lambda(228)=  1.000000000000
  lambda(229)=  1.000000000000
  lambda(230)=  1.000000000000
  lambda(231)=  1.000000000000
  lambda(232)=  1.000000000000
  lambda(233)=  1.000000000000
  lambda(234)=  1.000000000000
  lambda(235)=  1.000000000000
  lambda(236)=  1.000000000000

 K-point   3 ndimwin: 236 we want the 19 leading eigenvector(s) of QPQ
  lambda(  1)= -0.000000000000
  lambda(  2)= -0.000000000000
  lambda(  3)= -0.000000000000
  lambda(  4)= -0.000000000000
  lambda(  5)= -0.000000000000
  lambda(  6)= -0.000000000000
  lambda(  7)= -0.000000000000
  lambda(  8)= -0.000000000000
  lambda(  9)= -0.000000000000
  lambda( 10)= -0.000000000000
  lambda( 11)= -0.000000000000
  lambda( 12)= -0.000000000000
  lambda( 13)= -0.000000000000
  lambda( 14)= -0.000000000000
  lambda( 15)= -0.000000000000
  lambda( 16)= -0.000000000000
  lambda( 17)= -0.000000000000
  lambda( 18)= -0.000000000000
  lambda( 19)= -0.000000000000
  lambda( 20)= -0.000000000000
  lambda( 21)= -0.000000000000
  lambda( 22)= -0.000000000000
  lambda( 23)= -0.000000000000
  lambda( 24)= -0.000000000000
  lambda( 25)= -0.000000000000
  lambda( 26)= -0.000000000000
  lambda( 27)= -0.000000000000
  lambda( 28)= -0.000000000000
  lambda( 29)= -0.000000000000
  lambda( 30)= -0.000000000000
  lambda( 31)= -0.000000000000
  lambda( 32)= -0.000000000000
  lambda( 33)= -0.000000000000
  lambda( 34)= -0.000000000000
  lambda( 35)= -0.000000000000
  lambda( 36)= -0.000000000000
  lambda( 37)= -0.000000000000
  lambda( 38)= -0.000000000000
  lambda( 39)= -0.000000000000
  lambda( 40)= -0.000000000000
  lambda( 41)= -0.000000000000
  lambda( 42)= -0.000000000000
  lambda( 43)= -0.000000000000
  lambda( 44)= -0.000000000000
  lambda( 45)= -0.000000000000
  lambda( 46)= -0.000000000000
  lambda( 47)= -0.000000000000
  lambda( 48)= -0.000000000000
  lambda( 49)= -0.000000000000
  lambda( 50)= -0.000000000000
  lambda( 51)= -0.000000000000
  lambda( 52)= -0.000000000000
  lambda( 53)= -0.000000000000
  lambda( 54)= -0.000000000000
  lambda( 55)= -0.000000000000
  lambda( 56)= -0.000000000000
  lambda( 57)= -0.000000000000
  lambda( 58)= -0.000000000000
  lambda( 59)= -0.000000000000
  lambda( 60)= -0.000000000000
  lambda( 61)= -0.000000000000
  lambda( 62)= -0.000000000000
  lambda( 63)= -0.000000000000
  lambda( 64)= -0.000000000000
  lambda( 65)= -0.000000000000
  lambda( 66)= -0.000000000000
  lambda( 67)= -0.000000000000
  lambda( 68)= -0.000000000000
  lambda( 69)= -0.000000000000
  lambda( 70)= -0.000000000000
  lambda( 71)= -0.000000000000
  lambda( 72)= -0.000000000000
  lambda( 73)= -0.000000000000
  lambda( 74)= -0.000000000000
  lambda( 75)= -0.000000000000
  lambda( 76)=  0.000000000000
  lambda( 77)=  0.000000000000
  lambda( 78)=  0.000000000000
  lambda( 79)=  0.000000000000
  lambda( 80)=  0.000000000000
  lambda( 81)=  0.000000000000
  lambda( 82)=  0.000000000000
  lambda( 83)=  0.000000000000
  lambda( 84)=  0.000000000000
  lambda( 85)=  0.000000000000
  lambda( 86)=  0.000000000000
  lambda( 87)=  0.000000000000
  lambda( 88)=  0.000000000000
  lambda( 89)=  0.000000000000
  lambda( 90)=  0.000000000000
  lambda( 91)=  0.000000000000
  lambda( 92)=  0.000000000000
  lambda( 93)=  0.000000000000
  lambda( 94)=  0.000000000000
  lambda( 95)=  0.000000000000
  lambda( 96)=  0.000000000000
  lambda( 97)=  0.000000000000
  lambda( 98)=  0.000000000000
  lambda( 99)=  0.000000000000
  lambda(100)=  0.000000000000
  lambda(101)=  0.000000000000
  lambda(102)=  0.000000000000
  lambda(103)=  0.000000000000
  lambda(104)=  0.000000000000
  lambda(105)=  0.000000000000
  lambda(106)=  0.000000000000
  lambda(107)=  0.000000000000
  lambda(108)=  0.000000000000
  lambda(109)=  0.000000000000
  lambda(110)=  0.000000000000
  lambda(111)=  0.000000000000
  lambda(112)=  0.000000000000
  lambda(113)=  0.000000000000
  lambda(114)=  0.000000000000
  lambda(115)=  0.000000000000
  lambda(116)=  0.000000000000
  lambda(117)=  0.000000000000
  lambda(118)=  0.000000000000
  lambda(119)=  0.000000000000
  lambda(120)=  0.000000000000
  lambda(121)=  0.000000000000
  lambda(122)=  0.000000000000
  lambda(123)=  0.000000000000
  lambda(124)=  0.000000000000
  lambda(125)=  0.000000000000
  lambda(126)=  0.000000000000
  lambda(127)=  0.000000000000
  lambda(128)=  0.000000000000
  lambda(129)=  0.000000000000
  lambda(130)=  0.000000000000
  lambda(131)=  0.000000000000
  lambda(132)=  0.000000000000
  lambda(133)=  0.000000000000
  lambda(134)=  0.000000000000
  lambda(135)=  0.000000000000
  lambda(136)=  0.000000000000
  lambda(137)=  0.000000000000
  lambda(138)=  0.000000000000
  lambda(139)=  0.000000000000
  lambda(140)=  0.000000000000
  lambda(141)=  0.000000000000
  lambda(142)=  0.000000000000
  lambda(143)=  0.000000000000
  lambda(144)=  0.000000000000
  lambda(145)=  0.000000000000
  lambda(146)=  0.000000000000
  lambda(147)=  0.000000000000
  lambda(148)=  0.000000000000
  lambda(149)=  0.000000000000
  lambda(150)=  0.000000000000
  lambda(151)=  0.000000000000
  lambda(152)=  0.000000000000
  lambda(153)=  0.000000000000
  lambda(154)=  0.000000000000
  lambda(155)=  0.000000000000
  lambda(156)=  0.000000000000
  lambda(157)=  0.000000000000
  lambda(158)=  0.000000000004
  lambda(159)=  0.000000000018
  lambda(160)=  0.000009292598
  lambda(161)=  0.000024809000
  lambda(162)=  0.000474365746
  lambda(163)=  0.000474366601
  lambda(164)=  0.005979596530
  lambda(165)=  0.007173407187
  lambda(166)=  0.015230442613
  lambda(167)=  0.015230582258
  lambda(168)=  0.016199638527
  lambda(169)=  0.018155294603
  lambda(170)=  0.018155322739
  lambda(171)=  0.020224838902
  lambda(172)=  0.026595610760
  lambda(173)=  0.030621400169
  lambda(174)=  0.030623610920
  lambda(175)=  0.042582534535
  lambda(176)=  0.042614750866
  lambda(177)=  0.044764989630
  lambda(178)=  0.045632084647
  lambda(179)=  0.045712362364
  lambda(180)=  0.048141689370
  lambda(181)=  0.048751520194
  lambda(182)=  0.048752707328
  lambda(183)=  0.062733537064
  lambda(184)=  0.062756337054
  lambda(185)=  0.062973546570
  lambda(186)=  0.062979188686
  lambda(187)=  0.068979649850
  lambda(188)=  0.080564009865
  lambda(189)=  0.080566536175
  lambda(190)=  0.092168508668
  lambda(191)=  0.092344812590
  lambda(192)=  0.092360197395
  lambda(193)=  0.097750466118
  lambda(194)=  0.097751938105
  lambda(195)=  0.100444129898
  lambda(196)=  0.102897308842
  lambda(197)=  0.112560955719
  lambda(198)=  0.112561468173
  lambda(199)=  0.117163653893
  lambda(200)=  0.118736899649
  lambda(201)=  0.118740016946
  lambda(202)=  0.119103322740
  lambda(203)=  0.119105387556
  lambda(204)=  0.119476080294
  lambda(205)=  0.119489609496
  lambda(206)=  0.122928696028
  lambda(207)=  0.122937239313
  lambda(208)=  0.126171082150
  lambda(209)=  0.126173602319
  lambda(210)=  0.134117595158
  lambda(211)=  0.134120160105
  lambda(212)=  0.149420191162
  lambda(213)=  0.149420340319
  lambda(214)=  0.170081718179
  lambda(215)=  0.170087548495
  lambda(216)=  0.175009384639
  lambda(217)=  0.193938552558
  lambda(218)=  1.000000000000
  lambda(219)=  1.000000000000
  lambda(220)=  1.000000000000
  lambda(221)=  1.000000000000
  lambda(222)=  1.000000000000
  lambda(223)=  1.000000000000
  lambda(224)=  1.000000000000
  lambda(225)=  1.000000000000
  lambda(226)=  1.000000000000
  lambda(227)=  1.000000000000
  lambda(228)=  1.000000000000
  lambda(229)=  1.000000000000
  lambda(230)=  1.000000000000
  lambda(231)=  1.000000000000
  lambda(232)=  1.000000000000
  lambda(233)=  1.000000000000
  lambda(234)=  1.000000000000
  lambda(235)=  1.000000000000
  lambda(236)=  1.000000000000

 K-point   4 ndimwin: 236 we want the 19 leading eigenvector(s) of QPQ
  lambda(  1)= -0.000000000000
  lambda(  2)= -0.000000000000
  lambda(  3)= -0.000000000000
  lambda(  4)= -0.000000000000
  lambda(  5)= -0.000000000000
  lambda(  6)= -0.000000000000
  lambda(  7)= -0.000000000000
  lambda(  8)= -0.000000000000
  lambda(  9)= -0.000000000000
  lambda( 10)= -0.000000000000
  lambda( 11)= -0.000000000000
  lambda( 12)= -0.000000000000
  lambda( 13)= -0.000000000000
  lambda( 14)= -0.000000000000
  lambda( 15)= -0.000000000000
  lambda( 16)= -0.000000000000
  lambda( 17)= -0.000000000000
  lambda( 18)= -0.000000000000
  lambda( 19)= -0.000000000000
  lambda( 20)= -0.000000000000
  lambda( 21)= -0.000000000000
  lambda( 22)= -0.000000000000
  lambda( 23)= -0.000000000000
  lambda( 24)= -0.000000000000
  lambda( 25)= -0.000000000000
  lambda( 26)= -0.000000000000
  lambda( 27)= -0.000000000000
  lambda( 28)= -0.000000000000
  lambda( 29)= -0.000000000000
  lambda( 30)= -0.000000000000
  lambda( 31)= -0.000000000000
  lambda( 32)= -0.000000000000
  lambda( 33)= -0.000000000000
  lambda( 34)= -0.000000000000
  lambda( 35)= -0.000000000000
  lambda( 36)= -0.000000000000
  lambda( 37)= -0.000000000000
  lambda( 38)= -0.000000000000
  lambda( 39)= -0.000000000000
  lambda( 40)= -0.000000000000
  lambda( 41)= -0.000000000000
  lambda( 42)= -0.000000000000
  lambda( 43)= -0.000000000000
  lambda( 44)= -0.000000000000
  lambda( 45)= -0.000000000000
  lambda( 46)= -0.000000000000
  lambda( 47)= -0.000000000000
  lambda( 48)= -0.000000000000
  lambda( 49)= -0.000000000000
  lambda( 50)= -0.000000000000
  lambda( 51)= -0.000000000000
  lambda( 52)= -0.000000000000
  lambda( 53)= -0.000000000000
  lambda( 54)= -0.000000000000
  lambda( 55)= -0.000000000000
  lambda( 56)= -0.000000000000
  lambda( 57)= -0.000000000000
  lambda( 58)= -0.000000000000
  lambda( 59)= -0.000000000000
  lambda( 60)= -0.000000000000
  lambda( 61)= -0.000000000000
  lambda( 62)= -0.000000000000
  lambda( 63)= -0.000000000000
  lambda( 64)= -0.000000000000
  lambda( 65)= -0.000000000000
  lambda( 66)= -0.000000000000
  lambda( 67)= -0.000000000000
  lambda( 68)= -0.000000000000
  lambda( 69)= -0.000000000000
  lambda( 70)= -0.000000000000
  lambda( 71)= -0.000000000000
  lambda( 72)= -0.000000000000
  lambda( 73)= -0.000000000000
  lambda( 74)= -0.000000000000
  lambda( 75)= -0.000000000000
  lambda( 76)= -0.000000000000
  lambda( 77)= -0.000000000000
  lambda( 78)= -0.000000000000
  lambda( 79)=  0.000000000000
  lambda( 80)=  0.000000000000
  lambda( 81)=  0.000000000000
  lambda( 82)=  0.000000000000
  lambda( 83)=  0.000000000000
  lambda( 84)=  0.000000000000
  lambda( 85)=  0.000000000000
  lambda( 86)=  0.000000000000
  lambda( 87)=  0.000000000000
  lambda( 88)=  0.000000000000
  lambda( 89)=  0.000000000000
  lambda( 90)=  0.000000000000
  lambda( 91)=  0.000000000000
  lambda( 92)=  0.000000000000
  lambda( 93)=  0.000000000000
  lambda( 94)=  0.000000000000
  lambda( 95)=  0.000000000000
  lambda( 96)=  0.000000000000
  lambda( 97)=  0.000000000000
  lambda( 98)=  0.000000000000
  lambda( 99)=  0.000000000000
  lambda(100)=  0.000000000000
  lambda(101)=  0.000000000000
  lambda(102)=  0.000000000000
  lambda(103)=  0.000000000000
  lambda(104)=  0.000000000000
  lambda(105)=  0.000000000000
  lambda(106)=  0.000000000000
  lambda(107)=  0.000000000000
  lambda(108)=  0.000000000000
  lambda(109)=  0.000000000000
  lambda(110)=  0.000000000000
  lambda(111)=  0.000000000000
  lambda(112)=  0.000000000000
  lambda(113)=  0.000000000000
  lambda(114)=  0.000000000000
  lambda(115)=  0.000000000000
  lambda(116)=  0.000000000000
  lambda(117)=  0.000000000000
  lambda(118)=  0.000000000000
  lambda(119)=  0.000000000000
  lambda(120)=  0.000000000000
  lambda(121)=  0.000000000000
  lambda(122)=  0.000000000000
  lambda(123)=  0.000000000000
  lambda(124)=  0.000000000000
  lambda(125)=  0.000000000000
  lambda(126)=  0.000000000000
  lambda(127)=  0.000000000000
  lambda(128)=  0.000000000000
  lambda(129)=  0.000000000000
  lambda(130)=  0.000000000000
  lambda(131)=  0.000000000000
  lambda(132)=  0.000000000000
  lambda(133)=  0.000000000000
  lambda(134)=  0.000000000000
  lambda(135)=  0.000000000000
  lambda(136)=  0.000000000000
  lambda(137)=  0.000000000000
  lambda(138)=  0.000000000000
  lambda(139)=  0.000000000000
  lambda(140)=  0.000000000000
  lambda(141)=  0.000000000000
  lambda(142)=  0.000000000000
  lambda(143)=  0.000000000000
  lambda(144)=  0.000000000000
  lambda(145)=  0.000000000000
  lambda(146)=  0.000000000000
  lambda(147)=  0.000000000000
  lambda(148)=  0.000000000000
  lambda(149)=  0.000000000000
  lambda(150)=  0.000000000000
  lambda(151)=  0.000000000000
  lambda(152)=  0.000000000000
  lambda(153)=  0.000000000000
  lambda(154)=  0.000000000000
  lambda(155)=  0.000000000000
  lambda(156)=  0.000000000000
  lambda(157)=  0.000000000000
  lambda(158)=  0.000000000005
  lambda(159)=  0.000000000017
  lambda(160)=  0.000009292572
  lambda(161)=  0.000024808425
  lambda(162)=  0.000474359743
  lambda(163)=  0.000474367253
  lambda(164)=  0.005979595906
  lambda(165)=  0.007173404581
  lambda(166)=  0.015230452738
  lambda(167)=  0.015230591444
  lambda(168)=  0.016199631712
  lambda(169)=  0.018155316053
  lambda(170)=  0.018155324884
  lambda(171)=  0.020224869842
  lambda(172)=  0.026595550411
  lambda(173)=  0.030621394432
  lambda(174)=  0.030623608511
  lambda(175)=  0.042582535955
  lambda(176)=  0.042614751991
  lambda(177)=  0.044764990041
  lambda(178)=  0.045632084715
  lambda(179)=  0.045712355171
  lambda(180)=  0.048141667517
  lambda(181)=  0.048751517725
  lambda(182)=  0.048752722151
  lambda(183)=  0.062733540832
  lambda(184)=  0.062756348918
  lambda(185)=  0.062973546531
  lambda(186)=  0.062979188822
  lambda(187)=  0.068979651200
  lambda(188)=  0.080563994988
  lambda(189)=  0.080566532648
  lambda(190)=  0.092168509229
  lambda(191)=  0.092344811017
  lambda(192)=  0.092360194978
  lambda(193)=  0.097750467797
  lambda(194)=  0.097751937654
  lambda(195)=  0.100444159155
  lambda(196)=  0.102897285181
  lambda(197)=  0.112560955888
  lambda(198)=  0.112561468074
  lambda(199)=  0.117163648146
  lambda(200)=  0.118736901421
  lambda(201)=  0.118740009507
  lambda(202)=  0.119103326468
  lambda(203)=  0.119105398188
  lambda(204)=  0.119476082766
  lambda(205)=  0.119489615075
  lambda(206)=  0.122928693263
  lambda(207)=  0.122937240299
  lambda(208)=  0.126171067298
  lambda(209)=  0.126173591413
  lambda(210)=  0.134117609244
  lambda(211)=  0.134120176526
  lambda(212)=  0.149420191668
  lambda(213)=  0.149420328685
  lambda(214)=  0.170081723157
  lambda(215)=  0.170087551876
  lambda(216)=  0.175009382571
  lambda(217)=  0.193938549640
  lambda(218)=  1.000000000000
  lambda(219)=  1.000000000000
  lambda(220)=  1.000000000000
  lambda(221)=  1.000000000000
  lambda(222)=  1.000000000000
  lambda(223)=  1.000000000000
  lambda(224)=  1.000000000000
  lambda(225)=  1.000000000000
  lambda(226)=  1.000000000000
  lambda(227)=  1.000000000000
  lambda(228)=  1.000000000000
  lambda(229)=  1.000000000000
  lambda(230)=  1.000000000000
  lambda(231)=  1.000000000000
  lambda(232)=  1.000000000000
  lambda(233)=  1.000000000000
  lambda(234)=  1.000000000000
  lambda(235)=  1.000000000000
  lambda(236)=  1.000000000000

 K-point   5 ndimwin: 236 we want the 25 leading eigenvector(s) of QPQ
  lambda(  1)= -0.000000000000
  lambda(  2)= -0.000000000000
  lambda(  3)= -0.000000000000
  lambda(  4)= -0.000000000000
  lambda(  5)= -0.000000000000
  lambda(  6)= -0.000000000000
  lambda(  7)= -0.000000000000
  lambda(  8)= -0.000000000000
  lambda(  9)= -0.000000000000
  lambda( 10)= -0.000000000000
  lambda( 11)= -0.000000000000
  lambda( 12)= -0.000000000000
  lambda( 13)= -0.000000000000
  lambda( 14)= -0.000000000000
  lambda( 15)= -0.000000000000
  lambda( 16)= -0.000000000000
  lambda( 17)= -0.000000000000
  lambda( 18)= -0.000000000000
  lambda( 19)= -0.000000000000
  lambda( 20)= -0.000000000000
  lambda( 21)= -0.000000000000
  lambda( 22)= -0.000000000000
  lambda( 23)= -0.000000000000
  lambda( 24)= -0.000000000000
  lambda( 25)= -0.000000000000
  lambda( 26)= -0.000000000000
  lambda( 27)= -0.000000000000
  lambda( 28)= -0.000000000000
  lambda( 29)= -0.000000000000
  lambda( 30)= -0.000000000000
  lambda( 31)= -0.000000000000
  lambda( 32)= -0.000000000000
  lambda( 33)= -0.000000000000
  lambda( 34)= -0.000000000000
  lambda( 35)= -0.000000000000
  lambda( 36)= -0.000000000000
  lambda( 37)= -0.000000000000
  lambda( 38)= -0.000000000000
  lambda( 39)= -0.000000000000
  lambda( 40)= -0.000000000000
  lambda( 41)= -0.000000000000
  lambda( 42)= -0.000000000000
  lambda( 43)= -0.000000000000
  lambda( 44)= -0.000000000000
  lambda( 45)= -0.000000000000
  lambda( 46)= -0.000000000000
  lambda( 47)= -0.000000000000
  lambda( 48)= -0.000000000000
  lambda( 49)= -0.000000000000
  lambda( 50)= -0.000000000000
  lambda( 51)= -0.000000000000
  lambda( 52)= -0.000000000000
  lambda( 53)= -0.000000000000
  lambda( 54)= -0.000000000000
  lambda( 55)= -0.000000000000
  lambda( 56)= -0.000000000000
  lambda( 57)= -0.000000000000
  lambda( 58)= -0.000000000000
  lambda( 59)= -0.000000000000
  lambda( 60)= -0.000000000000
  lambda( 61)= -0.000000000000
  lambda( 62)= -0.000000000000
  lambda( 63)= -0.000000000000
  lambda( 64)= -0.000000000000
  lambda( 65)= -0.000000000000
  lambda( 66)= -0.000000000000
  lambda( 67)= -0.000000000000
  lambda( 68)= -0.000000000000
  lambda( 69)= -0.000000000000
  lambda( 70)= -0.000000000000
  lambda( 71)= -0.000000000000
  lambda( 72)= -0.000000000000
  lambda( 73)= -0.000000000000
  lambda( 74)= -0.000000000000
  lambda( 75)= -0.000000000000
  lambda( 76)=  0.000000000000
  lambda( 77)=  0.000000000000
  lambda( 78)=  0.000000000000
  lambda( 79)=  0.000000000000
  lambda( 80)=  0.000000000000
  lambda( 81)=  0.000000000000
  lambda( 82)=  0.000000000000
  lambda( 83)=  0.000000000000
  lambda( 84)=  0.000000000000
  lambda( 85)=  0.000000000000
  lambda( 86)=  0.000000000000
  lambda( 87)=  0.000000000000
  lambda( 88)=  0.000000000000
  lambda( 89)=  0.000000000000
  lambda( 90)=  0.000000000000
  lambda( 91)=  0.000000000000
  lambda( 92)=  0.000000000000
  lambda( 93)=  0.000000000000
  lambda( 94)=  0.000000000000
  lambda( 95)=  0.000000000000
  lambda( 96)=  0.000000000000
  lambda( 97)=  0.000000000000
  lambda( 98)=  0.000000000000
  lambda( 99)=  0.000000000000
  lambda(100)=  0.000000000000
  lambda(101)=  0.000000000000
  lambda(102)=  0.000000000000
  lambda(103)=  0.000000000000
  lambda(104)=  0.000000000000
  lambda(105)=  0.000000000000
  lambda(106)=  0.000000000000
  lambda(107)=  0.000000000000
  lambda(108)=  0.000000000000
  lambda(109)=  0.000000000000
  lambda(110)=  0.000000000000
  lambda(111)=  0.000000000000
  lambda(112)=  0.000000000000
  lambda(113)=  0.000000000000
  lambda(114)=  0.000000000000
  lambda(115)=  0.000000000000
  lambda(116)=  0.000000000000
  lambda(117)=  0.000000000000
  lambda(118)=  0.000000000000
  lambda(119)=  0.000000000000
  lambda(120)=  0.000000000000
  lambda(121)=  0.000000000000
  lambda(122)=  0.000000000000
  lambda(123)=  0.000000000000
  lambda(124)=  0.000000000000
  lambda(125)=  0.000000000000
  lambda(126)=  0.000000000000
  lambda(127)=  0.000000000000
  lambda(128)=  0.000000000000
  lambda(129)=  0.000000000000
  lambda(130)=  0.000000000000
  lambda(131)=  0.000000000000
  lambda(132)=  0.000000000000
  lambda(133)=  0.000000000000
  lambda(134)=  0.000000000000
  lambda(135)=  0.000000000000
  lambda(136)=  0.000000000000
  lambda(137)=  0.000000000000
  lambda(138)=  0.000000000000
  lambda(139)=  0.000000000000
  lambda(140)=  0.000000000000
  lambda(141)=  0.000000000000
  lambda(142)=  0.000000000000
  lambda(143)=  0.000000000000
  lambda(144)=  0.000000000000
  lambda(145)=  0.000000000000
  lambda(146)=  0.000000000000
  lambda(147)=  0.000000000000
  lambda(148)=  0.000000000000
  lambda(149)=  0.000000000000
  lambda(150)=  0.000000000000
  lambda(151)=  0.000000000000
  lambda(152)=  0.000000231353
  lambda(153)=  0.000000231524
  lambda(154)=  0.000000231797
  lambda(155)=  0.000050674795
  lambda(156)=  0.000050690791
  lambda(157)=  0.000050720552
  lambda(158)=  0.013956089802
  lambda(159)=  0.013956116943
  lambda(160)=  0.013956471116
  lambda(161)=  0.018042839085
  lambda(162)=  0.018042912221
  lambda(163)=  0.018042931328
  lambda(164)=  0.020568609427
  lambda(165)=  0.020570133593
  lambda(166)=  0.020570392429
  lambda(167)=  0.033047540889
  lambda(168)=  0.033048329231
  lambda(169)=  0.033048431308
  lambda(170)=  0.048090200586
  lambda(171)=  0.048095636946
  lambda(172)=  0.048105465895
  lambda(173)=  0.048110255519
  lambda(174)=  0.049266158398
  lambda(175)=  0.049266629403
  lambda(176)=  0.049268296370
  lambda(177)=  0.051593525823
  lambda(178)=  0.051627898962
  lambda(179)=  0.051631201610
  lambda(180)=  0.056728489179
  lambda(181)=  0.067001992755
  lambda(182)=  0.067018907426
  lambda(183)=  0.067025632121
  lambda(184)=  0.087373567036
  lambda(185)=  0.087376605553
  lambda(186)=  0.087377562168
  lambda(187)=  0.087954724697
  lambda(188)=  0.087961837262
  lambda(189)=  0.095175345604
  lambda(190)=  0.095182648130
  lambda(191)=  0.095187957799
  lambda(192)=  0.098772784712
  lambda(193)=  0.098776891939
  lambda(194)=  0.098780707857
  lambda(195)=  0.103523967219
  lambda(196)=  0.106017019949
  lambda(197)=  0.106021290683
  lambda(198)=  0.106027242292
  lambda(199)=  0.106030621636
  lambda(200)=  0.119031839199
  lambda(201)=  0.119031916976
  lambda(202)=  0.119032496745
  lambda(203)=  0.130850874651
  lambda(204)=  0.130851094629
  lambda(205)=  0.130855193255
  lambda(206)=  0.156377466420
  lambda(207)=  0.156378471132
  lambda(208)=  0.156388661912
  lambda(209)=  0.156392794583
  lambda(210)=  0.156401503761
  lambda(211)=  0.156404045624
  lambda(212)=  1.000000000000
  lambda(213)=  1.000000000000
  lambda(214)=  1.000000000000
  lambda(215)=  1.000000000000
  lambda(216)=  1.000000000000
  lambda(217)=  1.000000000000
  lambda(218)=  1.000000000000
  lambda(219)=  1.000000000000
  lambda(220)=  1.000000000000
  lambda(221)=  1.000000000000
  lambda(222)=  1.000000000000
  lambda(223)=  1.000000000000
  lambda(224)=  1.000000000000
  lambda(225)=  1.000000000000
  lambda(226)=  1.000000000000
  lambda(227)=  1.000000000000
  lambda(228)=  1.000000000000
  lambda(229)=  1.000000000000
  lambda(230)=  1.000000000000
  lambda(231)=  1.000000000000
  lambda(232)=  1.000000000000
  lambda(233)=  1.000000000000
  lambda(234)=  1.000000000000
  lambda(235)=  1.000000000000
  lambda(236)=  1.000000000000

 K-point   6 ndimwin: 236 we want the 19 leading eigenvector(s) of QPQ
  lambda(  1)= -0.000000000000
  lambda(  2)= -0.000000000000
  lambda(  3)= -0.000000000000
[...]
  WF centre and spread   81  (  1.723021,  0.989838, -0.083000 )     2.17496508
  WF centre and spread   82  (  1.722974,  0.975777,  0.040850 )     2.06966785
  WF centre and spread   83  (  1.723032,  1.018147,  0.040644 )     2.07016932
  WF centre and spread   84  (  1.723021,  0.989838,  3.437303 )     2.17496376
  WF centre and spread   85  (  1.722973,  0.975777,  3.313453 )     2.06966636
  WF centre and spread   86  (  1.723031,  1.018147,  3.313659 )     2.07016778
  WF centre and spread   87  (  5.169066,  0.989681, -0.083023 )     2.17468333
  WF centre and spread   88  (  5.168900,  0.975936,  0.040656 )     2.06991068
  WF centre and spread   89  (  5.169106,  1.017954,  0.040444 )     2.07047891
  WF centre and spread   90  (  5.169065,  0.989680,  3.437326 )     2.17468479
  WF centre and spread   91  (  5.168900,  0.975936,  3.313646 )     2.06991229
  WF centre and spread   92  (  5.169105,  1.017954,  3.313858 )     2.07048002
  WF centre and spread   93  (  8.615098,  0.989687, -0.083022 )     2.17470264
  WF centre and spread   94  (  8.615204,  0.975943,  0.040606 )     2.06979795
  WF centre and spread   95  (  8.615084,  1.017966,  0.040426 )     2.07041584
  WF centre and spread   96  (  8.615099,  0.989687,  3.437325 )     2.17470406
  WF centre and spread   97  (  8.615204,  0.975942,  3.313696 )     2.06979957
  WF centre and spread   98  (  8.615085,  1.017965,  3.313877 )     2.07041696
  WF centre and spread   99  ( 12.061098,  0.989799, -0.082994 )     2.17485098
  WF centre and spread  100  ( 12.061183,  0.975800,  0.040800 )     2.06980236
  WF centre and spread  101  ( 12.061165,  1.018092,  0.040568 )     2.07031343
  WF centre and spread  102  ( 12.061099,  0.989798,  3.437297 )     2.17484968
  WF centre and spread  103  ( 12.061184,  0.975800,  3.313503 )     2.06980088
  WF centre and spread  104  ( 12.061166,  1.018092,  3.313735 )     2.07031186
  WF centre and spread  105  ( 10.338225,  3.974218, -0.083028 )     2.17464746
  WF centre and spread  106  ( 10.338127,  3.960299,  0.040589 )     2.06992961
  WF centre and spread  107  ( 10.338167,  4.002351,  0.040422 )     2.07035996
  WF centre and spread  108  ( 10.338226,  3.974218,  3.437330 )     2.17464894
  WF centre and spread  109  ( 10.338128,  3.960299,  3.313713 )     2.06993084
  WF centre and spread  110  ( 10.338167,  4.002351,  3.313880 )     2.07036150
  WF centre and spread  111  (  8.615173,  6.958609, -0.083015 )     2.17461971
  WF centre and spread  112  (  8.615160,  6.944661,  0.040572 )     2.06969986
  WF centre and spread  113  (  8.615059,  6.986808,  0.040498 )     2.07065786
  WF centre and spread  114  (  8.615174,  6.958610,  3.437318 )     2.17462118
  WF centre and spread  115  (  8.615161,  6.944661,  3.313730 )     2.06970113
  WF centre and spread  116  (  8.615059,  6.986808,  3.313804 )     2.07065940
  WF centre and spread  117  (  6.892039,  9.942871, -0.083021 )     2.17490693
  WF centre and spread  118  (  6.892026,  9.928898,  0.040629 )     2.06937333
  WF centre and spread  119  (  6.892103,  9.971322,  0.040727 )     2.07030050
  WF centre and spread  120  (  6.892039,  9.942871,  3.437324 )     2.17490564
  WF centre and spread  121  (  6.892026,  9.928899,  3.313674 )     2.06937174
  WF centre and spread  122  (  6.892103,  9.971322,  3.313576 )     2.07029911
  WF centre and spread  123  (  3.445926,  9.942804, -0.083010 )     2.17473409
  WF centre and spread  124  (  3.446048,  9.928970,  0.040481 )     2.06981093
  WF centre and spread  125  (  3.446073,  9.971210,  0.040400 )     2.07037618
  WF centre and spread  126  (  3.445926,  9.942804,  3.437313 )     2.17473455
  WF centre and spread  127  (  3.446048,  9.928970,  3.313822 )     2.06981123
  WF centre and spread  128  (  3.446073,  9.971210,  3.313903 )     2.07037631
  WF centre and spread  129  ( -0.000007,  9.942801, -0.083017 )     2.17476751
  WF centre and spread  130  ( -0.000040,  9.929024,  0.040372 )     2.06979805
  WF centre and spread  131  ( -0.000007,  9.971176,  0.040296 )     2.07051574
  WF centre and spread  132  ( -0.000007,  9.942801,  3.437320 )     2.17476769
  WF centre and spread  133  ( -0.000040,  9.929024,  3.313931 )     2.06979825
  WF centre and spread  134  ( -0.000007,  9.971175,  3.314006 )     2.07051554
  WF centre and spread  135  ( -3.445942,  9.942807, -0.083016 )     2.17473089
  WF centre and spread  136  ( -3.446023,  9.928981,  0.040510 )     2.06975614
  WF centre and spread  137  ( -3.446038,  9.971216,  0.040448 )     2.07038601
  WF centre and spread  138  ( -3.445942,  9.942807,  3.437318 )     2.17473133
  WF centre and spread  139  ( -3.446023,  9.928981,  3.313792 )     2.06975645
  WF centre and spread  140  ( -3.446039,  9.971216,  3.313855 )     2.07038614
  WF centre and spread  141  (  6.892065,  3.974220, -0.083055 )     2.17477661
  WF centre and spread  142  (  6.892034,  3.960336,  0.040733 )     2.06990382
  WF centre and spread  143  (  6.892094,  4.002334,  0.040633 )     2.07050449
  WF centre and spread  144  (  6.892065,  3.974220,  3.437357 )     2.17478021
  WF centre and spread  145  (  6.892034,  3.960336,  3.313568 )     2.06990747
  WF centre and spread  146  (  6.892094,  4.002334,  3.313668 )     2.07050812
  WF centre and spread  147  (  5.168940,  6.958591, -0.083017 )     2.17462323
  WF centre and spread  148  (  5.168963,  6.944647,  0.040551 )     2.06971210
  WF centre and spread  149  (  5.169138,  6.986827,  0.040437 )     2.07053649
  WF centre and spread  150  (  5.168940,  6.958591,  3.437319 )     2.17462467
  WF centre and spread  151  (  5.168962,  6.944647,  3.313751 )     2.06971334
  WF centre and spread  152  (  5.169138,  6.986827,  3.313865 )     2.07053799
  WF centre and spread  153  (  1.722945,  6.958569, -0.082989 )     2.17473382
  WF centre and spread  154  (  1.723016,  6.944613,  0.040415 )     2.06990448
  WF centre and spread  155  (  1.723063,  6.986800,  0.040301 )     2.07049339
  WF centre and spread  156  (  1.722945,  6.958569,  3.437291 )     2.17473398
  WF centre and spread  157  (  1.723016,  6.944613,  3.313887 )     2.06990441
  WF centre and spread  158  (  1.723063,  6.986800,  3.314002 )     2.07049350
  WF centre and spread  159  (  3.445921,  3.974248, -0.083025 )     2.17464993
  WF centre and spread  160  (  3.446029,  3.960266,  0.040610 )     2.06986659
  WF centre and spread  161  (  3.446008,  4.002377,  0.040414 )     2.07034479
  WF centre and spread  162  (  3.445921,  3.974248,  3.437327 )     2.17465138
  WF centre and spread  163  (  3.446029,  3.960266,  3.313692 )     2.06986781
  WF centre and spread  164  (  3.446008,  4.002377,  3.313888 )     2.07034630
  WF centre and spread  165  ( -0.000014,  3.974310, -0.082991 )     2.17466848
  WF centre and spread  166  ( -0.000018,  3.960205,  0.040474 )     2.06960930
  WF centre and spread  167  (  0.000031,  4.002452,  0.040436 )     2.07046321
  WF centre and spread  168  ( -0.000014,  3.974310,  3.437293 )     2.17466894
  WF centre and spread  169  ( -0.000018,  3.960205,  3.313829 )     2.06960933
  WF centre and spread  170  (  0.000031,  4.002452,  3.313866 )     2.07046362
  WF centre and spread  171  ( -1.722955,  6.958550, -0.083000 )     2.17474690
  WF centre and spread  172  ( -1.723051,  6.944640,  0.040436 )     2.06997714
  WF centre and spread  173  ( -1.723043,  6.986800,  0.040285 )     2.07043734
  WF centre and spread  174  ( -1.722954,  6.958550,  3.437302 )     2.17474703
  WF centre and spread  175  ( -1.723051,  6.944640,  3.313866 )     2.06997709
  WF centre and spread  176  ( -1.723042,  6.986800,  3.314017 )     2.07043744
  Sum of centres and spreads (620.287900,883.375926,295.178595 )   363.46263216
 
         Spreads (Ang^2)       Omega I      =   341.773148239
        ================       Omega D      =     0.000465788
                               Omega OD     =    21.689258370
    Final Spread (Ang^2)       Omega Total  =   363.462872397
 ------------------------------------------------------------------------------
 Final centres (translated to home cell for writing xyz file)
  WF centre    1  (  0.000001, -0.006572,  1.677152 )
  WF centre    2  ( -0.000002,  0.035044,  1.677151 )
  WF centre    3  (  0.000000, -0.035260,  1.677151 )
  WF centre    4  ( -0.000013,  0.142292,  1.677152 )
  WF centre    5  (  0.000068, -0.133954,  1.677152 )
  WF centre    6  (  3.446096, -0.006620,  1.677151 )
  WF centre    7  (  3.446076,  0.035045,  1.677151 )
  WF centre    8  (  3.446046, -0.035279,  1.677151 )
  WF centre    9  (  3.446024,  0.142294,  1.677152 )
  WF centre   10  (  3.446172, -0.133882,  1.677152 )
  WF centre   11  (  6.892118, -0.006620,  1.677151 )
  WF centre   12  (  6.892091,  0.035047,  1.677150 )
  WF centre   13  (  6.892085, -0.035272,  1.677150 )
  WF centre   14  (  6.892065,  0.142451,  1.677151 )
  WF centre   15  (  6.892130, -0.133776,  1.677151 )
  WF centre   16  ( 10.338065, -0.006622,  1.677151 )
  WF centre   17  ( 10.338102,  0.035047,  1.677151 )
  WF centre   18  ( 10.338125, -0.035277,  1.677151 )
  WF centre   19  ( 10.338035,  0.142312,  1.677152 )
  WF centre   20  ( 10.338248, -0.133835,  1.677152 )
  WF centre   21  (  8.615166,  2.977759,  1.677151 )
  WF centre   22  (  8.615119,  3.019401,  1.677150 )
  WF centre   23  (  8.615100,  2.949100,  1.677150 )
  WF centre   24  (  8.614970,  3.126723,  1.677151 )
  WF centre   25  (  8.615167,  2.850354,  1.677151 )
  WF centre   26  (  6.892072,  5.962196,  1.677151 )
  WF centre   27  (  6.892087,  6.003754,  1.677150 )
  WF centre   28  (  6.892087,  5.933470,  1.677150 )
  WF centre   29  (  6.892061,  6.110988,  1.677151 )
  WF centre   30  (  6.892226,  5.834612,  1.677151 )
  WF centre   31  (  5.169016,  8.946511,  1.677151 )
  WF centre   32  (  5.169038,  8.988117,  1.677151 )
  WF centre   33  (  5.169064,  8.917802,  1.677150 )
  WF centre   34  (  5.169064,  9.095207,  1.677152 )
  WF centre   35  (  5.169203,  8.819059,  1.677152 )
  WF centre   36  (  1.722965,  8.946504,  1.677151 )
  WF centre   37  (  1.723000,  8.988123,  1.677151 )
  WF centre   38  (  1.723021,  8.917810,  1.677151 )
  WF centre   39  (  1.722912,  9.095202,  1.677151 )
  WF centre   40  (  1.723269,  8.819250,  1.677152 )
  WF centre   41  ( -1.722939,  8.946487,  1.677151 )
  WF centre   42  ( -1.722996,  8.988123,  1.677151 )
  WF centre   43  ( -1.723022,  8.917805,  1.677151 )
  WF centre   44  ( -1.722977,  9.095214,  1.677151 )
  WF centre   45  ( -1.723160,  8.819220,  1.677152 )
  WF centre   46  ( -5.169022,  8.946536,  1.677151 )
  WF centre   47  ( -5.169033,  8.988116,  1.677151 )
  WF centre   48  ( -5.169063,  8.917808,  1.677150 )
  WF centre   49  ( -5.169142,  9.095230,  1.677152 )
  WF centre   50  ( -5.168945,  8.819037,  1.677152 )
  WF centre   51  (  5.169022,  2.977766,  1.677151 )
  WF centre   52  (  5.169058,  3.019401,  1.677150 )
  WF centre   53  (  5.169072,  2.949097,  1.677150 )
  WF centre   54  (  5.169170,  3.126674,  1.677151 )
  WF centre   55  (  5.169150,  2.850338,  1.677151 )
  WF centre   56  (  3.445969,  5.962167,  1.677151 )
  WF centre   57  (  3.446034,  6.003763,  1.677150 )
  WF centre   58  (  3.446048,  5.933464,  1.677150 )
  WF centre   59  (  3.445863,  6.110809,  1.677151 )
  WF centre   60  (  3.446596,  5.834752,  1.677151 )
  WF centre   61  (  0.000010,  5.962195,  1.677151 )
  WF centre   62  ( -0.000000,  6.003768,  1.677151 )
  WF centre   63  ( -0.000001,  5.933479,  1.677151 )
  WF centre   64  ( -0.000040,  6.110737,  1.677152 )
  WF centre   65  (  0.000054,  5.834871,  1.677151 )
  WF centre   66  (  1.722973,  2.977847,  1.677151 )
  WF centre   67  (  1.723019,  3.019410,  1.677150 )
  WF centre   68  (  1.723028,  2.949131,  1.677151 )
  WF centre   69  (  1.722966,  3.126610,  1.677152 )
  WF centre   70  (  1.723270,  2.850385,  1.677152 )
  WF centre   71  ( -1.722966,  2.977834,  1.677151 )
  WF centre   72  ( -1.723016,  3.019411,  1.677150 )
  WF centre   73  ( -1.723029,  2.949125,  1.677151 )
  WF centre   74  ( -1.723081,  3.126586,  1.677152 )
  WF centre   75  ( -1.723061,  2.850406,  1.677152 )
  WF centre   76  ( -3.445941,  5.962156,  1.677151 )
  WF centre   77  ( -3.446026,  6.003762,  1.677150 )
  WF centre   78  ( -3.446049,  5.933462,  1.677150 )
  WF centre   79  ( -3.445946,  6.110841,  1.677151 )
  WF centre   80  ( -3.446426,  5.834738,  1.677151 )
  WF centre   81  (  1.723021,  0.989838, -0.083000 )
  WF centre   82  (  1.722974,  0.975777,  0.040850 )
  WF centre   83  (  1.723032,  1.018147,  0.040644 )
  WF centre   84  (  1.723021,  0.989838,  3.437303 )
  WF centre   85  (  1.722973,  0.975777,  3.313453 )
  WF centre   86  (  1.723031,  1.018147,  3.313659 )
  WF centre   87  (  5.169066,  0.989681, -0.083023 )
  WF centre   88  (  5.168900,  0.975936,  0.040656 )
  WF centre   89  (  5.169106,  1.017954,  0.040444 )
  WF centre   90  (  5.169065,  0.989680,  3.437326 )
  WF centre   91  (  5.168900,  0.975936,  3.313646 )
  WF centre   92  (  5.169105,  1.017954,  3.313858 )
  WF centre   93  (  8.615098,  0.989687, -0.083022 )
  WF centre   94  (  8.615204,  0.975943,  0.040606 )
  WF centre   95  (  8.615084,  1.017966,  0.040426 )
  WF centre   96  (  8.615099,  0.989687,  3.437325 )
  WF centre   97  (  8.615204,  0.975942,  3.313696 )
  WF centre   98  (  8.615085,  1.017965,  3.313877 )
  WF centre   99  ( 12.061098,  0.989799, -0.082994 )
  WF centre  100  ( 12.061183,  0.975800,  0.040800 )
  WF centre  101  ( 12.061165,  1.018092,  0.040568 )
  WF centre  102  ( 12.061099,  0.989798,  3.437297 )
  WF centre  103  ( 12.061184,  0.975800,  3.313503 )
  WF centre  104  ( 12.061166,  1.018092,  3.313735 )
  WF centre  105  ( 10.338225,  3.974218, -0.083028 )
  WF centre  106  ( 10.338127,  3.960299,  0.040589 )
  WF centre  107  ( 10.338167,  4.002351,  0.040422 )
  WF centre  108  ( 10.338226,  3.974218,  3.437330 )
  WF centre  109  ( 10.338128,  3.960299,  3.313713 )
  WF centre  110  ( 10.338167,  4.002351,  3.313880 )
  WF centre  111  (  8.615173,  6.958609, -0.083015 )
  WF centre  112  (  8.615160,  6.944661,  0.040572 )
  WF centre  113  (  8.615059,  6.986808,  0.040498 )
  WF centre  114  (  8.615174,  6.958610,  3.437318 )
  WF centre  115  (  8.615161,  6.944661,  3.313730 )
  WF centre  116  (  8.615059,  6.986808,  3.313804 )
  WF centre  117  (  6.892039,  9.942871, -0.083021 )
  WF centre  118  (  6.892026,  9.928898,  0.040629 )
  WF centre  119  (  6.892103,  9.971322,  0.040727 )
  WF centre  120  (  6.892039,  9.942871,  3.437324 )
  WF centre  121  (  6.892026,  9.928899,  3.313674 )
  WF centre  122  (  6.892103,  9.971322,  3.313576 )
  WF centre  123  (  3.445926,  9.942804, -0.083010 )
  WF centre  124  (  3.446048,  9.928970,  0.040481 )
  WF centre  125  (  3.446073,  9.971210,  0.040400 )
  WF centre  126  (  3.445926,  9.942804,  3.437313 )
  WF centre  127  (  3.446048,  9.928970,  3.313822 )
  WF centre  128  (  3.446073,  9.971210,  3.313903 )
  WF centre  129  ( -0.000007,  9.942801, -0.083017 )
  WF centre  130  ( -0.000040,  9.929024,  0.040372 )
  WF centre  131  ( -0.000007,  9.971176,  0.040296 )
  WF centre  132  ( -0.000007,  9.942801,  3.437320 )
  WF centre  133  ( -0.000040,  9.929024,  3.313931 )
  WF centre  134  ( -0.000007,  9.971175,  3.314006 )
  WF centre  135  ( -3.445942,  9.942807, -0.083016 )
  WF centre  136  ( -3.446023,  9.928981,  0.040510 )
  WF centre  137  ( -3.446038,  9.971216,  0.040448 )
  WF centre  138  ( -3.445942,  9.942807,  3.437318 )
  WF centre  139  ( -3.446023,  9.928981,  3.313792 )
  WF centre  140  ( -3.446039,  9.971216,  3.313855 )
  WF centre  141  (  6.892065,  3.974220, -0.083055 )
  WF centre  142  (  6.892034,  3.960336,  0.040733 )
  WF centre  143  (  6.892094,  4.002334,  0.040633 )
  WF centre  144  (  6.892065,  3.974220,  3.437357 )
  WF centre  145  (  6.892034,  3.960336,  3.313568 )
  WF centre  146  (  6.892094,  4.002334,  3.313668 )
  WF centre  147  (  5.168940,  6.958591, -0.083017 )
  WF centre  148  (  5.168963,  6.944647,  0.040551 )
  WF centre  149  (  5.169138,  6.986827,  0.040437 )
  WF centre  150  (  5.168940,  6.958591,  3.437319 )
  WF centre  151  (  5.168962,  6.944647,  3.313751 )
  WF centre  152  (  5.169138,  6.986827,  3.313865 )
  WF centre  153  (  1.722945,  6.958569, -0.082989 )
  WF centre  154  (  1.723016,  6.944613,  0.040415 )
  WF centre  155  (  1.723063,  6.986800,  0.040301 )
  WF centre  156  (  1.722945,  6.958569,  3.437291 )
  WF centre  157  (  1.723016,  6.944613,  3.313887 )
  WF centre  158  (  1.723063,  6.986800,  3.314002 )
  WF centre  159  (  3.445921,  3.974248, -0.083025 )
  WF centre  160  (  3.446029,  3.960266,  0.040610 )
  WF centre  161  (  3.446008,  4.002377,  0.040414 )
  WF centre  162  (  3.445921,  3.974248,  3.437327 )
  WF centre  163  (  3.446029,  3.960266,  3.313692 )
  WF centre  164  (  3.446008,  4.002377,  3.313888 )
  WF centre  165  ( -0.000014,  3.974310, -0.082991 )
  WF centre  166  ( -0.000018,  3.960205,  0.040474 )
  WF centre  167  (  0.000031,  4.002452,  0.040436 )
  WF centre  168  ( -0.000014,  3.974310,  3.437293 )
  WF centre  169  ( -0.000018,  3.960205,  3.313829 )
  WF centre  170  (  0.000031,  4.002452,  3.313866 )
  WF centre  171  ( -1.722955,  6.958550, -0.083000 )
  WF centre  172  ( -1.723051,  6.944640,  0.040436 )
  WF centre  173  ( -1.723043,  6.986800,  0.040285 )
  WF centre  174  ( -1.722954,  6.958550,  3.437302 )
  WF centre  175  ( -1.723051,  6.944640,  3.313866 )
  WF centre  176  ( -1.723042,  6.986800,  3.314017 )
 ------------------------------------------------------------------------------
 

 Wannier centres written to file 1Fe_initialconf.up_centres.xyz
  
  Omega Invariant:   1-s^2 =   341.773148239 (Ang^2)
                   -2log s =   351.705502105 (Ang^2)
                    acos^2 =   348.322251595 (Ang^2)
 Time for wannierise           30.324 (sec)

 Writing checkpoint file 1Fe_initialconf.up.chk... done

 *---------------------------------------------------------------------------*
 |                               PLOTTING                                    |
 *---------------------------------------------------------------------------*
 
    9 lattice points in Wigner-Seitz supercell:

      vector  -1  -2   0   degeneracy:  1
      vector  -1  -1   0   degeneracy:  1
      vector  -1   0   0   degeneracy:  1
      vector   0  -1   0   degeneracy:  1
      vector   0   0   0   degeneracy:  1
      vector   0   1   0   degeneracy:  1
      vector   1   0   0   degeneracy:  1
      vector   1   1   0   degeneracy:  1
      vector   1   2   0   degeneracy:  1
  tot =        9.000
  mp_grid product =            9
 
 Calculating interpolated band-structure
 
 Time to calculate interpolated band structure       9.804 (sec)
 
 Time for plotting             10.463 (sec)
 Total Execution Time          63.412 (sec)

 *===========================================================================*
 |                             TIMING INFORMATION                            |
 *===========================================================================*
 |    Tag                                                Ncalls      Time (s)|
 |---------------------------------------------------------------------------|
 |kmesh: get                                        :         1         0.011|
 |overlap: allocate                                 :         1         0.002|
 |overlap: read                                     :         1         6.102|
 |dis: main                                         :         1        16.475|
 |wann: main                                        :         1        30.324|
 |plot: main                                        :         1        10.463|
 *---------------------------------------------------------------------------*
 
 All done: wannier90 exiting
