
     Program PWSCF v.6.8 starts on 20Jul2023 at 18:51: 5 

     This program is part of the open-source Quantum ESPRESSO suite
     for quantum simulation of materials; please cite
         "P. Giannozzi et al., J. Phys.:Condens. Matter 21 395502 (2009);
         "P. Giannozzi et al., J. Phys.:Condens. Matter 29 465901 (2017);
         "P. Giannozzi et al., J. Chem. Phys. 152 154105 (2020);
          URL http://www.quantum-espresso.org", 
     in publications or presentations arising from this work. More details at
     http://www.quantum-espresso.org/quote

     Parallel version (MPI & OpenMP), running on      80 processor cores
     Number of MPI processes:                80
     Threads/MPI process:                     1

     MPI processes distributed on     2 nodes
     R & G space division:  proc/nbgrp/npool/nimage =      80
     182099 MiB available memory on the printing compute node when the environment starts
 
     Reading input from 3cr.scf.in

     Current dimensions of program PWSCF are:
     Max number of different atomic species (ntypx) = 10
     Max number of k-points (npk) =  40000
     Max angular momentum in pseudopotentials (lmaxx) =  4
     file Cr.pbe-spn-kjpaw_psl.1.0.0.UPF: wavefunction(s)  3S 3P 3D renormalized
     file Nb.pbe-spn-kjpaw_psl.1.0.0.UPF: wavefunction(s)  4S 4P 4D renormalized
     file Se.pbe-n-kjpaw_psl.1.0.0.UPF: wavefunction(s)  4S renormalized

     Subspace diagonalization in iterative solution of the eigenvalue problem:
     one sub-group per band group will be used
     scalapack distributed-memory algorithm (size of sub-group:  8*  8 procs)

 
     Parallelization info
     --------------------
     sticks:   dense  smooth     PW     G-vecs:    dense   smooth      PW
     Min         467     174     45               125329    28766    3799
     Max         468     175     46               125336    28783    3810
     Sum       37435   13999   3643             10026649  2302489  304271
 
     Using Slab Decomposition
 


     bravais-lattice index     =            4
     lattice parameter (alat)  =      26.0483  a.u.
     unit-cell volume          =   26240.8884 (a.u.)^3
     number of atoms/cell      =           51
     number of atomic types    =            3
     number of electrons       =       442.00
     number of Kohn-Sham states=          265
     kinetic-energy cutoff     =      75.0000  Ry
     charge density cutoff     =     800.0000  Ry
     scf convergence threshold =      1.0E-07
     mixing beta               =       0.7000
     number of iterations used =            8  local-TF  mixing
     Exchange-correlation= SLA  PW   PBX  PBC
                           (   1   4   3   4   0   0   0)

     celldm(1)=  26.048308  celldm(2)=   0.000000  celldm(3)=   1.714389
     celldm(4)=   0.000000  celldm(5)=   0.000000  celldm(6)=   0.000000

     crystal axes: (cart. coord. in units of alat)
               a(1) = (   1.000000   0.000000   0.000000 )  
               a(2) = (  -0.500000   0.866025   0.000000 )  
               a(3) = (   0.000000   0.000000   1.714389 )  

     reciprocal axes: (cart. coord. in units 2 pi/alat)
               b(1) = (  1.000000  0.577350  0.000000 )  
               b(2) = (  0.000000  1.154701  0.000000 )  
               b(3) = (  0.000000  0.000000  0.583298 )  


     PseudoPot. # 1 for Cr read from file:
     /ptmp/jojaibal/YSR_Project/Cr.pbe-spn-kjpaw_psl.1.0.0.UPF
     MD5 check sum: 7e2868eaf0e426e74b90ebb04087dc43
     Pseudo is Projector augmented-wave + core cor, Zval = 14.0
     Generated using &quot;atomic&quot; code by A. Dal Corso  v.6.3
     Shape of augmentation charge: PSQ
     Using radial grid of 1183 points,  6 beta functions with: 
                l(1) =   0
                l(2) =   0
                l(3) =   1
                l(4) =   1
                l(5) =   2
                l(6) =   2
     Q(r) pseudized with 0 coefficients 


     PseudoPot. # 2 for Nb read from file:
     /ptmp/jojaibal/YSR_Project/Nb.pbe-spn-kjpaw_psl.1.0.0.UPF
     MD5 check sum: dcedcbb129af9a7271e4748e5febedb1
     Pseudo is Projector augmented-wave + core cor, Zval = 13.0
     Generated using &quot;atomic&quot; code by A. Dal Corso  v.6.2.2
     Shape of augmentation charge: PSQ
     Using radial grid of 1227 points,  6 beta functions with: 
                l(1) =   0
                l(2) =   0
                l(3) =   1
                l(4) =   1
                l(5) =   2
                l(6) =   2
     Q(r) pseudized with 0 coefficients 


     PseudoPot. # 3 for Se read from file:
     /ptmp/jojaibal/YSR_Project/Se.pbe-n-kjpaw_psl.1.0.0.UPF
     MD5 check sum: 12232cb78b362a7b0fca8da9cb95fd5e
     Pseudo is Projector augmented-wave + core cor, Zval =  6.0
     Generated using &quot;atomic&quot; code by A. Dal Corso  v.6.3
     Shape of augmentation charge: PSQ
     Using radial grid of 1211 points,  4 beta functions with: 
                l(1) =   0
                l(2) =   0
                l(3) =   1
                l(4) =   1
     Q(r) pseudized with 0 coefficients 


     atomic species   valence    mass     pseudopotential
        Cr            14.00    51.99610     Cr( 1.00)
        Nb            13.00    92.90638     Nb( 1.00)
        Se             6.00    78.96000     Se( 1.00)

     Starting magnetic structure 
     atomic species   magnetization
        Cr           0.500
        Nb           0.000
        Se           0.000


     Simplified LDA+U calculation (l_max = 2) with parameters (eV):
     atomic species    L          U    alpha       J0     beta
        Cr             2     4.0000   0.0000   0.0000   0.0000



     No symmetry found



   Cartesian axes

     site n.     atom                  positions (alat units)
         1           Cr  tau(   1) = (  -0.0000000   0.5773503   0.2860517  )
         2           Cr  tau(   2) = (   0.2466667   0.5773503   0.2860517  )
         3           Cr  tau(   3) = (   0.5166667   0.5773503   0.2860517  )
         4           Nb  tau(   4) = (   0.0000000   0.0000000   0.1229160  )
         5           Se  tau(   5) = (   0.1254089   0.0724049   0.0010778  )
         6           Se  tau(   6) = (   0.1251714   0.0722677   0.2449858  )
         7           Nb  tau(   7) = (   0.2517673   0.0002084   0.1234554  )
         8           Se  tau(   8) = (   0.3747267   0.0705210  -0.0026703  )
         9           Se  tau(   9) = (   0.3744687   0.0773147   0.2432424  )
        10           Nb  tau(  10) = (   0.5000000   0.0039564   0.1214542  )
        11           Se  tau(  11) = (   0.6252733   0.0705210  -0.0026703  )
        12           Se  tau(  12) = (   0.6255313   0.0773147   0.2432424  )
        13           Nb  tau(  13) = (   0.7482327   0.0002084   0.1234554  )
        14           Se  tau(  14) = (   0.8745911   0.0724049   0.0010778  )
        15           Se  tau(  15) = (   0.8748286   0.0722677   0.2449858  )
        16           Nb  tau(  16) = (   0.6227459   0.2178078   0.1170668  )
        17           Se  tau(  17) = (   0.7515637   0.2892623  -0.0026703  )
        18           Se  tau(  18) = (   0.7458091   0.2856421   0.2432424  )
        19           Nb  tau(  19) = (   0.5000000   0.4304099   0.1170668  )
        20           Se  tau(  20) = (   0.6262904   0.5062421  -0.0026703  )
        21           Se  tau(  21) = (   0.6202779   0.5030686   0.2432424  )
        22           Nb  tau(  22) = (   0.3742968   0.6478843   0.1234554  )
        23           Se  tau(  23) = (   0.5000000   0.7212157   0.0010778  )
        24           Se  tau(  24) = (   0.5000000   0.7214900   0.2449858  )
        25           Nb  tau(  25) = (   0.1252411   0.6496583   0.1347264  )
        26           Se  tau(  26) = (   0.2466517   0.7197547   0.0051095  )
        27           Se  tau(  27) = (   0.2537864   0.7238739   0.2493858  )
        28           Nb  tau(  28) = (  -0.1252412   0.6496583   0.1347264  )
        29           Se  tau(  29) = (   0.0000000   0.7186156   0.0095953  )
        30           Se  tau(  30) = (   0.0000000   0.7417567   0.2570242  )
        31           Nb  tau(  31) = (  -0.3742968   0.6478843   0.1234554  )
        32           Se  tau(  32) = (  -0.2466517   0.7197547   0.0051095  )
        33           Se  tau(  33) = (  -0.2537864   0.7238739   0.2493858  )
        34           Nb  tau(  34) = (   0.3772541   0.2178078   0.1170668  )
        35           Se  tau(  35) = (   0.5000000   0.2886751  -0.0074067  )
        36           Se  tau(  36) = (   0.5000000   0.2886751   0.2418116  )
        37           Nb  tau(  37) = (   0.2534264   0.4310345   0.1214542  )
        38           Se  tau(  38) = (   0.3737096   0.5062421  -0.0026703  )
        39           Se  tau(  39) = (   0.3797221   0.5030686   0.2432424  )
        40           Nb  tau(  40) = (  -0.0000000   0.4327342   0.1347264  )
        41           Se  tau(  41) = (   0.1223393   0.5067176   0.0095953  )
        42           Se  tau(  42) = (   0.1423801   0.4951471   0.2570242  )
        43           Nb  tau(  43) = (   0.1260641   0.2179327   0.1234554  )
        44           Se  tau(  44) = (   0.2484363   0.2892623  -0.0026703  )
        45           Se  tau(  45) = (   0.2541909   0.2856421   0.2432424  )
        46           Nb  tau(  46) = (  -0.1260641   0.2179327   0.1234554  )
        47           Se  tau(  47) = (   0.0000000   0.2925415   0.0051095  )
        48           Se  tau(  48) = (   0.0000000   0.2843030   0.2493858  )
        49           Nb  tau(  49) = (  -0.2534264   0.4310345   0.1214542  )
        50           Se  tau(  50) = (  -0.1223393   0.5067176   0.0095953  )
        51           Se  tau(  51) = (  -0.1423801   0.4951471   0.2570242  )

     number of k points=    20  Methfessel-Paxton smearing, width (Ry)=  0.0200
                       cart. coord. in units 2pi/alat
        k(    1) = (   0.0000000   0.0000000   0.0000000), wk =   0.0277778
        k(    2) = (   0.0000000   0.1924501   0.0000000), wk =   0.0555556
        k(    3) = (   0.0000000   0.3849002   0.0000000), wk =   0.0555556
        k(    4) = (   0.0000000  -0.5773503   0.0000000), wk =   0.0277778
        k(    5) = (   0.1666667   0.2886751   0.0000000), wk =   0.0555556
        k(    6) = (   0.1666667   0.4811252   0.0000000), wk =   0.0555556
        k(    7) = (   0.3333333   0.5773503   0.0000000), wk =   0.0555556
        k(    8) = (  -0.1666667   0.0962250   0.0000000), wk =   0.0555556
        k(    9) = (   0.1666667   0.0962250   0.0000000), wk =   0.0555556
        k(   10) = (  -0.3333333   0.1924501   0.0000000), wk =   0.0555556
        k(   11) = (   0.3333333   0.1924501   0.0000000), wk =   0.0555556
        k(   12) = (   0.5000000  -0.2886751   0.0000000), wk =   0.0277778
        k(   13) = (  -0.5000000  -0.2886751   0.0000000), wk =   0.0277778
        k(   14) = (  -0.1666667   0.2886751   0.0000000), wk =   0.0555556
        k(   15) = (   0.3333333  -0.0000000   0.0000000), wk =   0.0555556
        k(   16) = (  -0.1666667   0.4811252   0.0000000), wk =   0.0555556
        k(   17) = (  -0.3333333   0.3849002   0.0000000), wk =   0.0555556
        k(   18) = (   0.5000000   0.0962250   0.0000000), wk =   0.0555556
        k(   19) = (  -0.3333333  -0.3849002   0.0000000), wk =   0.0555556
        k(   20) = (   0.5000000  -0.0962250   0.0000000), wk =   0.0555556

     Dense  grid: 10026649 G-vectors     FFT dimensions: ( 240, 240, 405)

     Smooth grid:  2302489 G-vectors     FFT dimensions: ( 144, 144, 250)

     Estimated max dynamical RAM per process >       1.19 GB

     Estimated total dynamical RAM >      95.53 GB
     Generating pointlists ...
     new r_m :   0.0555 (alat units)  1.4450 (a.u.) for type    1
     new r_m :   0.0770 (alat units)  2.0050 (a.u.) for type    2
     new r_m :   0.0555 (alat units)  1.4450 (a.u.) for type    3

     Initial potential from superposition of free atoms

     starting charge  441.97432, renormalised to  442.00000

     negative rho (up, down):  1.635E-03 9.763E-04
     Number of +U iterations with fixed ns =  0
     Starting occupations:
 --- enter write_ns ---
 LDA+U parameters:
U( 1)     =  4.00000000
atom    1   Tr[ns(na)] (up, down, total) =   5.00000  0.00000  5.00000
   spin  1
    eigenvalues: 
  1.000  1.000  1.000  1.000  1.000
    eigenvectors:
  1.000  0.000  0.000  0.000  0.000
  0.000  1.000  0.000  0.000  0.000
  0.000  0.000  1.000  0.000  0.000
  0.000  0.000  0.000  1.000  0.000
  0.000  0.000  0.000  0.000  1.000
    occupations:
  1.000  0.000  0.000  0.000  0.000
  0.000  1.000  0.000  0.000  0.000
  0.000  0.000  1.000  0.000  0.000
  0.000  0.000  0.000  1.000  0.000
  0.000  0.000  0.000  0.000  1.000
   spin  2
    eigenvalues: 
  0.000  0.000  0.000  0.000  0.000
    eigenvectors:
  1.000  0.000  0.000  0.000  0.000
  0.000  1.000  0.000  0.000  0.000
  0.000  0.000  1.000  0.000  0.000
  0.000  0.000  0.000  1.000  0.000
  0.000  0.000  0.000  0.000  1.000
    occupations:
  0.000  0.000  0.000  0.000  0.000
  0.000  0.000  0.000  0.000  0.000
  0.000  0.000  0.000  0.000  0.000
  0.000  0.000  0.000  0.000  0.000
  0.000  0.000  0.000  0.000  0.000
atomic mag. moment =   5.00000
atom    2   Tr[ns(na)] (up, down, total) =   5.00000  0.00000  5.00000
   spin  1
    eigenvalues: 
  1.000  1.000  1.000  1.000  1.000
    eigenvectors:
  1.000  0.000  0.000  0.000  0.000
  0.000  1.000  0.000  0.000  0.000
  0.000  0.000  1.000  0.000  0.000
  0.000  0.000  0.000  1.000  0.000
  0.000  0.000  0.000  0.000  1.000
    occupations:
  1.000  0.000  0.000  0.000  0.000
  0.000  1.000  0.000  0.000  0.000
  0.000  0.000  1.000  0.000  0.000
  0.000  0.000  0.000  1.000  0.000
  0.000  0.000  0.000  0.000  1.000
   spin  2
    eigenvalues: 
  0.000  0.000  0.000  0.000  0.000
    eigenvectors:
  1.000  0.000  0.000  0.000  0.000
  0.000  1.000  0.000  0.000  0.000
  0.000  0.000  1.000  0.000  0.000
  0.000  0.000  0.000  1.000  0.000
  0.000  0.000  0.000  0.000  1.000
    occupations:
  0.000  0.000  0.000  0.000  0.000
  0.000  0.000  0.000  0.000  0.000
  0.000  0.000  0.000  0.000  0.000
  0.000  0.000  0.000  0.000  0.000
  0.000  0.000  0.000  0.000  0.000
atomic mag. moment =   5.00000
atom    3   Tr[ns(na)] (up, down, total) =   5.00000  0.00000  5.00000
   spin  1
    eigenvalues: 
  1.000  1.000  1.000  1.000  1.000
    eigenvectors:
  1.000  0.000  0.000  0.000  0.000
  0.000  1.000  0.000  0.000  0.000
  0.000  0.000  1.000  0.000  0.000
  0.000  0.000  0.000  1.000  0.000
  0.000  0.000  0.000  0.000  1.000
    occupations:
  1.000  0.000  0.000  0.000  0.000
  0.000  1.000  0.000  0.000  0.000
  0.000  0.000  1.000  0.000  0.000
  0.000  0.000  0.000  1.000  0.000
  0.000  0.000  0.000  0.000  1.000
   spin  2
    eigenvalues: 
  0.000  0.000  0.000  0.000  0.000
    eigenvectors:
  1.000  0.000  0.000  0.000  0.000
  0.000  1.000  0.000  0.000  0.000
  0.000  0.000  1.000  0.000  0.000
  0.000  0.000  0.000  1.000  0.000
  0.000  0.000  0.000  0.000  1.000
    occupations:
  0.000  0.000  0.000  0.000  0.000
  0.000  0.000  0.000  0.000  0.000
  0.000  0.000  0.000  0.000  0.000
  0.000  0.000  0.000  0.000  0.000
  0.000  0.000  0.000  0.000  0.000
atomic mag. moment =   5.00000
N of occupied +U levels =   15.000000
 --- exit write_ns ---
 Atomic wfc used for LDA+U Projector are NOT orthogonalized
     Starting wfcs are  366 randomized atomic wfcs
     Checking if some PAW data can be deallocated... 

     total cpu time spent up to now is      148.7 secs

     Self-consistent Calculation

     iteration #  1     ecut=    75.00 Ry     beta= 0.70
     Davidson diagonalization with overlap
     ethr =  1.00E-02,  avg # of iterations =  2.5
 --- enter write_ns ---
 LDA+U parameters:
U( 1)     =  4.00000000
atom    1   Tr[ns(na)] (up, down, total) =   4.91508  0.55731  5.47240
   spin  1
    eigenvalues: 
  0.975  0.977  0.979  0.992  0.992
    eigenvectors:
  0.074  0.172  0.749  0.000  0.004
  0.012  0.009  0.016  0.457  0.507
  0.029  0.005  0.002  0.500  0.463
  0.484  0.475  0.010  0.016  0.015
  0.401  0.339  0.223  0.027  0.010
    occupations:
  0.978  0.000  0.001  0.000 -0.001
  0.000  0.992  0.000  0.000 -0.003
  0.001  0.000  0.991 -0.003  0.001
  0.000  0.000 -0.003  0.977  0.001
 -0.001 -0.003  0.001  0.001  0.977
   spin  2
    eigenvalues: 
  0.075  0.084  0.105  0.144  0.149
    eigenvectors:
  0.002  0.005  0.993  0.000  0.000
  0.607  0.381  0.006  0.000  0.005
  0.385  0.613  0.001  0.000  0.001
  0.000  0.000  0.000  0.998  0.002
  0.005  0.001  0.000  0.002  0.992
    occupations:
  0.105  0.002  0.000  0.001 -0.001
  0.002  0.079  0.004 -0.001  0.005
  0.000  0.004  0.080 -0.001 -0.002
  0.001 -0.001 -0.001  0.144  0.000
 -0.001  0.005 -0.002  0.000  0.149
atomic mag. moment =   4.35777
atom    2   Tr[ns(na)] (up, down, total) =   4.88095  0.95112  5.83207
   spin  1
    eigenvalues: 
  0.954  0.967  0.982  0.987  0.990
    eigenvectors:
  0.129  0.002  0.787  0.065  0.017
  0.045  0.007  0.111  0.228  0.609
  0.014  0.054  0.028  0.559  0.344
  0.002  0.937  0.012  0.043  0.006
  0.810  0.000  0.061  0.105  0.023
    occupations:
  0.979 -0.001 -0.001 -0.001  0.010
 -0.001  0.987 -0.003  0.001  0.007
 -0.001 -0.003  0.986  0.004  0.003
 -0.001  0.001  0.004  0.969  0.001
  0.010  0.007  0.003  0.001  0.960
   spin  2
    eigenvalues: 
  0.111  0.141  0.160  0.243  0.296
    eigenvectors:
  0.029  0.901  0.004  0.003  0.063
  0.491  0.004  0.502  0.001  0.002
  0.479  0.031  0.489  0.000  0.000
  0.000  0.003  0.000  0.829  0.168
  0.001  0.060  0.004  0.168  0.768
    occupations:
  0.150 -0.006  0.002  0.011 -0.036
 -0.006  0.136  0.025 -0.000  0.005
  0.002  0.025  0.136  0.001  0.003
  0.011 -0.000  0.001  0.252 -0.017
 -0.036  0.005  0.003 -0.017  0.277
atomic mag. moment =   3.92983
atom    3   Tr[ns(na)] (up, down, total) =   4.88888  0.95276  5.84164
   spin  1
    eigenvalues: 
  0.958  0.968  0.984  0.989  0.991
    eigenvectors:
  0.078  0.005  0.717  0.155  0.046
  0.087  0.075  0.192  0.164  0.482
  0.037  0.112  0.024  0.379  0.448
  0.032  0.807  0.067  0.090  0.004
  0.766  0.002  0.001  0.211  0.020
    occupations:
  0.983 -0.000 -0.001 -0.002 -0.007
 -0.000  0.984  0.005 -0.003  0.008
 -0.001  0.005  0.986  0.005 -0.005
 -0.002 -0.003  0.005  0.971 -0.004
 -0.007  0.008 -0.005 -0.004  0.965
   spin  2
    eigenvalues: 
  0.108  0.128  0.178  0.251  0.288
    eigenvectors:
  0.056  0.753  0.113  0.005  0.073
  0.524  0.001  0.434  0.040  0.000
  0.411  0.141  0.419  0.011  0.018
  0.008  0.000  0.027  0.814  0.151
  0.001  0.104  0.007  0.130  0.758
    occupations:
  0.144  0.012 -0.001  0.006  0.042
  0.012  0.145 -0.034  0.017 -0.009
 -0.001 -0.034  0.145  0.003  0.020
  0.006  0.017  0.003  0.253  0.014
  0.042 -0.009  0.020  0.014  0.265
atomic mag. moment =   3.93611
N of occupied +U levels =   17.146114
 --- exit write_ns ---

     negative rho (up, down):  3.894E-03 2.344E-01

     total cpu time spent up to now is      383.6 secs

     total energy              =  -12151.90786300 Ry
     estimated scf accuracy    <       5.92793593 Ry

     total magnetization       =    13.33 Bohr mag/cell
     absolute magnetization    =    16.15 Bohr mag/cell

     iteration #  2     ecut=    75.00 Ry     beta= 0.70
     Davidson diagonalization with overlap
     ethr =  1.34E-03,  avg # of iterations =  2.5

     negative rho (up, down):  7.918E-05 7.742E-02

     total cpu time spent up to now is      608.1 secs

     total energy              =  -12152.95282799 Ry
     estimated scf accuracy    <       2.53347920 Ry

     total magnetization       =     9.55 Bohr mag/cell
     absolute magnetization    =    14.46 Bohr mag/cell

     iteration #  3     ecut=    75.00 Ry     beta= 0.70
     Davidson diagonalization with overlap
     ethr =  5.73E-04,  avg # of iterations =  1.0

     negative rho (up, down):  1.134E-06 1.436E-05

     total cpu time spent up to now is      784.3 secs

     total energy              =  -12152.88696613 Ry
     estimated scf accuracy    <       0.99446910 Ry

     total magnetization       =     9.64 Bohr mag/cell
     absolute magnetization    =    14.85 Bohr mag/cell

     iteration #  4     ecut=    75.00 Ry     beta= 0.70
     Davidson diagonalization with overlap
     ethr =  2.25E-04,  avg # of iterations =  2.0

     negative rho (up, down):  7.637E-07 2.057E-03

     total cpu time spent up to now is      991.2 secs

     total energy              =  -12152.94650528 Ry
     estimated scf accuracy    <       0.14526122 Ry

     total magnetization       =     9.06 Bohr mag/cell
     absolute magnetization    =    15.73 Bohr mag/cell

     iteration #  5     ecut=    75.00 Ry     beta= 0.70
     Davidson diagonalization with overlap
     c_bands:  1 eigenvalues not converged
     ethr =  3.29E-05,  avg # of iterations = 12.4

     negative rho (up, down):  8.548E-07 1.390E-06

     total cpu time spent up to now is     1303.7 secs

     total energy              =  -12152.95705459 Ry
     estimated scf accuracy    <       0.07827449 Ry

     total magnetization       =     8.79 Bohr mag/cell
     absolute magnetization    =    15.72 Bohr mag/cell

     iteration #  6     ecut=    75.00 Ry     beta= 0.70
     Davidson diagonalization with overlap
     ethr =  1.77E-05,  avg # of iterations =  2.4

     negative rho (up, down):  1.280E-06 1.365E-06

     total cpu time spent up to now is     1505.6 secs

     total energy              =  -12152.95752540 Ry
     estimated scf accuracy    <       0.05218674 Ry

     total magnetization       =     8.37 Bohr mag/cell
     absolute magnetization    =    15.71 Bohr mag/cell

     iteration #  7     ecut=    75.00 Ry     beta= 0.70
     Davidson diagonalization with overlap
     ethr =  1.18E-05,  avg # of iterations =  1.1

     negative rho (up, down):  1.262E-06 7.775E-05

     total cpu time spent up to now is     1682.7 secs

     total energy              =  -12152.95198459 Ry
     estimated scf accuracy    <       0.03111504 Ry

     total magnetization       =     8.36 Bohr mag/cell
     absolute magnetization    =    15.84 Bohr mag/cell

     iteration #  8     ecut=    75.00 Ry     beta= 0.70
     Davidson diagonalization with overlap
     c_bands:  2 eigenvalues not converged
     c_bands:  1 eigenvalues not converged
     c_bands:  1 eigenvalues not converged
     c_bands:  1 eigenvalues not converged
     c_bands:  1 eigenvalues not converged
     c_bands:  1 eigenvalues not converged
     c_bands:  1 eigenvalues not converged
     c_bands:  2 eigenvalues not converged
     c_bands:  2 eigenvalues not converged
     ethr =  7.04E-06,  avg # of iterations =  7.2

     negative rho (up, down):  1.026E-03 3.557E-03

     total cpu time spent up to now is     1903.9 secs

     total energy              =  -12152.95090298 Ry
     estimated scf accuracy    <       0.01653777 Ry

     total magnetization       =     8.22 Bohr mag/cell
     absolute magnetization    =    16.06 Bohr mag/cell

     iteration #  9     ecut=    75.00 Ry     beta= 0.70
     Davidson diagonalization with overlap
     c_bands:  1 eigenvalues not converged
     c_bands:  4 eigenvalues not converged
     c_bands:  2 eigenvalues not converged
     c_bands:  3 eigenvalues not converged
     c_bands:  1 eigenvalues not converged
     c_bands:  3 eigenvalues not converged
     c_bands:  1 eigenvalues not converged
     c_bands:  1 eigenvalues not converged
     c_bands:  2 eigenvalues not converged
     c_bands:  2 eigenvalues not converged
     c_bands:  1 eigenvalues not converged
     c_bands:  2 eigenvalues not converged
     c_bands:  2 eigenvalues not converged
     c_bands:  3 eigenvalues not converged
     c_bands:  2 eigenvalues not converged
     c_bands:  2 eigenvalues not converged
     c_bands:  1 eigenvalues not converged
     c_bands:  2 eigenvalues not converged
     c_bands:  2 eigenvalues not converged
     ethr =  3.74E-06,  avg # of iterations = 14.4

     negative rho (up, down):  2.935E-02 3.317E-02

     total cpu time spent up to now is     2172.2 secs

     total energy              =  -12152.95073059 Ry
     estimated scf accuracy    <       0.00855584 Ry

     total magnetization       =     8.13 Bohr mag/cell
     absolute magnetization    =    16.21 Bohr mag/cell

     iteration # 10     ecut=    75.00 Ry     beta= 0.70
     Davidson diagonalization with overlap
     c_bands:  2 eigenvalues not converged
     c_bands:  2 eigenvalues not converged
     c_bands:  1 eigenvalues not converged
     c_bands:  1 eigenvalues not converged
     ethr =  1.94E-06,  avg # of iterations =  9.6

     negative rho (up, down):  2.191E-02 2.395E-02

     total cpu time spent up to now is     2409.7 secs

     total energy              =  -12152.95103338 Ry
     estimated scf accuracy    <       0.00353972 Ry

     total magnetization       =     8.11 Bohr mag/cell
     absolute magnetization    =    16.32 Bohr mag/cell

     iteration # 11     ecut=    75.00 Ry     beta= 0.70
     Davidson diagonalization with overlap
     ethr =  8.01E-07,  avg # of iterations =  1.8

     negative rho (up, down):  1.385E-02 1.465E-02

     total cpu time spent up to now is     2598.5 secs

     total energy              =  -12152.95147177 Ry
     estimated scf accuracy    <       0.00148601 Ry

     total magnetization       =     8.11 Bohr mag/cell
     absolute magnetization    =    16.34 Bohr mag/cell

     iteration # 12     ecut=    75.00 Ry     beta= 0.70
     Davidson diagonalization with overlap
     ethr =  3.36E-07,  avg # of iterations =  2.0

     negative rho (up, down):  9.021E-03 9.528E-03

     total cpu time spent up to now is     2795.2 secs

     total energy              =  -12152.95175607 Ry
     estimated scf accuracy    <       0.00036078 Ry

     total magnetization       =     8.05 Bohr mag/cell
     absolute magnetization    =    16.32 Bohr mag/cell

     iteration # 13     ecut=    75.00 Ry     beta= 0.70
     Davidson diagonalization with overlap
     ethr =  8.16E-08,  avg # of iterations =  2.4

     negative rho (up, down):  4.550E-03 4.752E-03

     total cpu time spent up to now is     3001.2 secs

     total energy              =  -12152.95178476 Ry
     estimated scf accuracy    <       0.00010610 Ry

     total magnetization       =     8.03 Bohr mag/cell
     absolute magnetization    =    16.32 Bohr mag/cell

     iteration # 14     ecut=    75.00 Ry     beta= 0.70
     Davidson diagonalization with overlap
     ethr =  2.40E-08,  avg # of iterations =  3.7

     negative rho (up, down):  2.603E-03 2.679E-03

     total cpu time spent up to now is     3217.3 secs

     total energy              =  -12152.95177975 Ry
     estimated scf accuracy    <       0.00004444 Ry

     total magnetization       =     8.04 Bohr mag/cell
     absolute magnetization    =    16.31 Bohr mag/cell

     iteration # 15     ecut=    75.00 Ry     beta= 0.70
     Davidson diagonalization with overlap
     ethr =  1.01E-08,  avg # of iterations =  2.4

     negative rho (up, down):  1.691E-03 1.751E-03

     total cpu time spent up to now is     3418.6 secs

     total energy              =  -12152.95180435 Ry
     estimated scf accuracy    <       0.00001688 Ry

     total magnetization       =     8.03 Bohr mag/cell
     absolute magnetization    =    16.30 Bohr mag/cell

     iteration # 16     ecut=    75.00 Ry     beta= 0.70
     Davidson diagonalization with overlap
     ethr =  3.82E-09,  avg # of iterations =  4.1

     negative rho (up, down):  1.350E-03 1.414E-03

     total cpu time spent up to now is     3643.0 secs

     total energy              =  -12152.95182192 Ry
     estimated scf accuracy    <       0.00000514 Ry

     total magnetization       =     8.03 Bohr mag/cell
     absolute magnetization    =    16.30 Bohr mag/cell

     iteration # 17     ecut=    75.00 Ry     beta= 0.70
     Davidson diagonalization with overlap
     ethr =  1.16E-09,  avg # of iterations =  5.3

     negative rho (up, down):  1.040E-03 1.097E-03

     total cpu time spent up to now is     3878.7 secs

     total energy              =  -12152.95183066 Ry
     estimated scf accuracy    <       0.00000188 Ry

     total magnetization       =     8.02 Bohr mag/cell
     absolute magnetization    =    16.30 Bohr mag/cell

     iteration # 18     ecut=    75.00 Ry     beta= 0.70
     Davidson diagonalization with overlap
     ethr =  4.25E-10,  avg # of iterations =  3.9

     negative rho (up, down):  1.002E-03 1.057E-03

     total cpu time spent up to now is     4112.7 secs

     total energy              =  -12152.95183300 Ry
     estimated scf accuracy    <       0.00000038 Ry

     total magnetization       =     8.01 Bohr mag/cell
     absolute magnetization    =    16.31 Bohr mag/cell

     iteration # 19     ecut=    75.00 Ry     beta= 0.70
     Davidson diagonalization with overlap
     ethr =  8.67E-11,  avg # of iterations =  5.7

     negative rho (up, down):  1.015E-03 1.068E-03
 
     Magnetic moment per site  (integrated on atomic sphere of radius R)
     atom   1 (R=0.055)  charge= 10.7484  magn=  2.9363
     atom   2 (R=0.055)  charge= 10.8594  magn=  2.5215
     atom   3 (R=0.055)  charge= 10.8593  magn=  2.5121
     atom   4 (R=0.077)  charge= 10.0258  magn= -0.1451
     atom   5 (R=0.055)  charge=  1.8181  magn=  0.0009
     atom   6 (R=0.055)  charge=  1.8212  magn=  0.0006
     atom   7 (R=0.077)  charge= 10.0235  magn= -0.0985
     atom   8 (R=0.055)  charge=  1.8190  magn= -0.0012
     atom   9 (R=0.055)  charge=  1.8226  magn= -0.0004
     atom  10 (R=0.077)  charge= 10.0385  magn= -0.1231
     atom  11 (R=0.055)  charge=  1.8188  magn= -0.0001
     atom  12 (R=0.055)  charge=  1.8233  magn=  0.0010
     atom  13 (R=0.077)  charge= 10.0289  magn= -0.1614
     atom  14 (R=0.055)  charge=  1.8180  magn=  0.0013
     atom  15 (R=0.055)  charge=  1.8219  magn=  0.0017
     atom  16 (R=0.077)  charge= 10.0298  magn= -0.0612
     atom  17 (R=0.055)  charge=  1.8193  magn= -0.0018
     atom  18 (R=0.055)  charge=  1.8236  magn=  0.0009
     atom  19 (R=0.077)  charge= 10.0612  magn= -0.0724
     atom  20 (R=0.055)  charge=  1.8189  magn= -0.0019
     atom  21 (R=0.055)  charge=  1.9243  magn= -0.0311
     atom  22 (R=0.077)  charge= 10.0717  magn= -0.1071
     atom  23 (R=0.055)  charge=  1.8180  magn=  0.0040
     atom  24 (R=0.055)  charge=  1.8695  magn= -0.0206
     atom  25 (R=0.077)  charge= 10.0547  magn= -0.1296
     atom  26 (R=0.055)  charge=  1.8188  magn=  0.0062
     atom  27 (R=0.055)  charge=  1.8690  magn= -0.0175
     atom  28 (R=0.077)  charge= 10.0191  magn= -0.2432
     atom  29 (R=0.055)  charge=  1.8192  magn=  0.0026
     atom  30 (R=0.055)  charge=  1.8351  magn= -0.0178
     atom  31 (R=0.077)  charge= 10.0602  magn= -0.1346
     atom  32 (R=0.055)  charge=  1.8186  magn=  0.0018
     atom  33 (R=0.055)  charge=  1.8237  magn= -0.0003
     atom  34 (R=0.077)  charge= 10.0316  magn=  0.0479
     atom  35 (R=0.055)  charge=  1.8196  magn= -0.0006
     atom  36 (R=0.055)  charge=  1.8234  magn= -0.0028
     atom  37 (R=0.077)  charge= 10.0718  magn= -0.0479
     atom  38 (R=0.055)  charge=  1.8186  magn=  0.0007
     atom  39 (R=0.055)  charge=  1.8815  magn= -0.0343
     atom  40 (R=0.077)  charge= 10.0251  magn= -0.2365
     atom  41 (R=0.055)  charge=  1.8192  magn=  0.0006
     atom  42 (R=0.055)  charge=  1.9274  magn= -0.0415
     atom  43 (R=0.077)  charge= 10.0212  magn= -0.0346
     atom  44 (R=0.055)  charge=  1.8179  magn= -0.0002
     atom  45 (R=0.055)  charge=  1.8245  magn= -0.0031
     atom  46 (R=0.077)  charge= 10.0202  magn= -0.0981
     atom  47 (R=0.055)  charge=  1.8191  magn=  0.0045
     atom  48 (R=0.055)  charge=  1.8223  magn= -0.0001
     atom  49 (R=0.077)  charge= 10.0417  magn= -0.1701
     atom  50 (R=0.055)  charge=  1.8193  magn= -0.0002
     atom  51 (R=0.055)  charge=  1.8349  magn= -0.0177

     total cpu time spent up to now is     4368.9 secs

     End of self-consistent calculation
 --- enter write_ns ---
 LDA+U parameters:
U( 1)     =  4.00000000
atom    1   Tr[ns(na)] (up, down, total) =   4.63852  0.63434  5.27286
   spin  1
    eigenvalues: 
  0.880  0.895  0.920  0.969  0.974
    eigenvectors:
  0.186  0.006  0.782  0.026  0.001
  0.005  0.026  0.050  0.892  0.027
  0.010  0.034  0.002  0.033  0.920
  0.415  0.477  0.065  0.001  0.043
  0.384  0.457  0.102  0.048  0.008
    occupations:
  0.914  0.006 -0.001 -0.010 -0.014
  0.006  0.964  0.000  0.002 -0.015
 -0.001  0.000  0.970 -0.017  0.003
 -0.010  0.002 -0.017  0.894 -0.005
 -0.014 -0.015  0.003 -0.005  0.896
   spin  2
    eigenvalues: 
  0.080  0.088  0.112  0.175  0.180
    eigenvectors:
  0.023  0.002  0.973  0.002  0.001
  0.808  0.163  0.025  0.002  0.001
  0.164  0.834  0.001  0.001  0.000
  0.002  0.000  0.000  0.822  0.175
  0.003  0.001  0.001  0.173  0.822
    occupations:
  0.111  0.005 -0.001  0.002 -0.003
  0.005  0.082  0.003 -0.003  0.005
 -0.001  0.003  0.087  0.003  0.001
  0.002 -0.003  0.003  0.176  0.002
 -0.003  0.005  0.001  0.002  0.179
atomic mag. moment =   4.00418
atom    2   Tr[ns(na)] (up, down, total) =   4.50229  1.19609  5.69838
   spin  1
    eigenvalues: 
  0.807  0.875  0.924  0.941  0.956
    eigenvectors:
  0.001  0.000  0.839  0.149  0.011
  0.000  0.001  0.099  0.291  0.609
  0.003  0.001  0.062  0.556  0.379
  0.020  0.979  0.000  0.000  0.001
  0.977  0.019  0.000  0.003  0.001
    occupations:
  0.927 -0.006 -0.003  0.000  0.004
 -0.006  0.948 -0.009  0.002 -0.001
 -0.003 -0.009  0.945 -0.001 -0.007
  0.000  0.002 -0.001  0.874  0.010
  0.004 -0.001 -0.007  0.010  0.808
   spin  2
    eigenvalues: 
  0.117  0.154  0.196  0.330  0.399
    eigenvectors:
  0.009  0.939  0.006  0.000  0.046
  0.529  0.000  0.468  0.002  0.000
  0.462  0.014  0.521  0.002  0.001
  0.000  0.004  0.004  0.939  0.053
  0.000  0.043  0.000  0.057  0.900
    occupations:
  0.166 -0.005  0.001  0.015 -0.049
 -0.005  0.154  0.039 -0.006 -0.003
  0.001  0.039  0.159 -0.004 -0.006
  0.015 -0.006 -0.004  0.332 -0.013
 -0.049 -0.003 -0.006 -0.013  0.385
atomic mag. moment =   3.30619
atom    3   Tr[ns(na)] (up, down, total) =   4.49192  1.19494  5.68686
   spin  1
    eigenvalues: 
  0.809  0.857  0.931  0.937  0.958
    eigenvectors:
  0.001  0.001  0.032  0.965  0.001
  0.006  0.001  0.603  0.025  0.366
  0.010  0.000  0.365  0.008  0.617
  0.314  0.677  0.000  0.003  0.006
  0.669  0.321  0.000  0.000  0.010
    occupations:
  0.937 -0.000 -0.002 -0.005 -0.002
 -0.000  0.940  0.012 -0.008 -0.008
 -0.002  0.012  0.947 -0.008 -0.013
 -0.005 -0.008 -0.008  0.843 -0.021
 -0.002 -0.008 -0.013 -0.021  0.826
   spin  2
    eigenvalues: 
  0.118  0.139  0.213  0.331  0.394
    eigenvectors:
  0.019  0.858  0.062  0.003  0.058
  0.498  0.004  0.461  0.038  0.000
  0.476  0.057  0.437  0.011  0.019
  0.007  0.000  0.026  0.818  0.149
  0.000  0.081  0.014  0.130  0.774
    occupations:
  0.159  0.011 -0.001  0.011  0.060
  0.011  0.170 -0.048  0.025 -0.011
 -0.001 -0.048  0.168  0.004  0.032
  0.011  0.025  0.004  0.336  0.023
  0.060 -0.011  0.032  0.023  0.363
atomic mag. moment =   3.29697
N of occupied +U levels =   16.658102
 --- exit write_ns ---

 ------ SPIN UP ------------


          k = 0.0000 0.0000 0.0000 (287679 PWs)   bands (ev):

   -73.3691 -73.2932 -73.1494 -56.0018 -55.9968 -55.9932 -55.9768 -55.9522
   -55.9407 -55.9380 -55.9371 -55.9213 -55.9150 -55.8940 -55.8926 -55.8665
   -55.8561 -55.8407 -55.8260 -45.1543 -45.0924 -44.8426 -44.7526 -44.7418
   -44.6577 -44.6567 -44.6000 -44.5506 -32.2404 -32.2062 -32.1999 -32.1697
   -32.1598 -32.1549 -32.1430 -32.1350 -32.1290 -32.1157 -32.1126 -32.0970
   -32.0918 -32.0858 -32.0693 -32.0560 -32.0490 -32.0434 -32.0397 -32.0316
   -32.0231 -32.0193 -32.0177 -32.0154 -32.0032 -32.0011 -31.9966 -31.9927
   -31.9841 -31.9795 -31.9772 -31.9677 -31.9644 -31.9598 -31.9508 -31.9421
   -31.9332 -31.9265 -31.9224 -31.9208 -31.9167 -31.9075 -31.8980 -31.8933
   -31.8898 -31.8654 -31.8471 -31.8428 -15.9454 -15.5496 -15.1543 -14.8912
   -14.6209 -14.4833 -14.2242 -14.1729 -13.8997 -13.8334 -13.8077 -13.7449
   -13.6363 -13.6114 -13.4532 -13.3499 -13.3343 -13.3194 -13.2238 -13.1968
   -13.1932 -13.1727 -13.1381 -13.0988 -13.0887 -13.0683 -13.0621 -13.0344
   -13.0012 -12.9867 -12.9768 -12.9384  -7.8883  -7.5599  -7.2912  -7.0715
    -7.0003  -6.8923  -6.7681  -6.6111  -6.4162  -6.1342  -6.0737  -6.0553
    -5.9956  -5.9260  -5.8252  -5.7733  -5.6509  -5.6207  -5.5149  -5.4834
    -5.3694  -5.3186  -5.2939  -5.2467  -5.2175  -5.2027  -5.1727  -5.0947
    -5.0669  -5.0467  -5.0107  -4.9616  -4.8512  -4.8372  -4.7561  -4.6941
    -4.6822  -4.6447  -4.5819  -4.5376  -4.4745  -4.4066  -4.3613  -4.2315
    -4.2101  -4.2000  -4.1612  -4.1415  -4.1095  -4.0711  -4.0288  -3.9473
    -3.8892  -3.8297  -3.8179  -3.7986  -3.7593  -3.7007  -3.6675  -3.6489
    -3.6016  -3.5601  -3.5512  -3.4708  -3.4704  -3.4344  -3.4130  -3.3952
    -3.3808  -3.3536  -3.3170  -3.2387  -3.2002  -3.1201  -3.0885  -2.9938
    -2.7846  -2.7605  -2.6802  -2.6680  -2.6143  -2.6042  -2.5079  -2.4970
    -2.4829  -2.4623  -2.4417  -2.3981  -2.3700  -2.3028  -2.2955  -2.2749
    -2.1967  -2.1881  -2.1728  -2.1703  -2.1174  -2.1063  -2.0876  -2.0440
    -1.9063  -1.8834  -1.8113  -1.7868  -1.6945  -1.6108  -1.5983  -1.4679
    -1.4464  -1.4109  -1.1959  -1.1490  -1.0931  -1.0913  -1.0228  -0.9810
    -0.9693  -0.8640  -0.8131  -0.7969  -0.7669  -0.7295  -0.6831  -0.6438
    -0.5993  -0.5420  -0.4156   0.7909   0.8975   1.0252   1.2417   1.3199
     1.3539   1.3896   1.4500   1.4690   1.4771   1.5027   1.5117   1.5196
     1.5703   1.5848   1.6016   1.6362   1.6437   1.6738   1.6825   1.7012
     1.7273   1.7458   1.8301   1.8627   1.8880   1.9219   1.9716   1.9853
     2.0096

          k = 0.0000 0.1925 0.0000 (287730 PWs)   bands (ev):

   -73.3691 -73.2932 -73.1494 -56.0018 -55.9968 -55.9932 -55.9768 -55.9522
   -55.9407 -55.9380 -55.9371 -55.9213 -55.9150 -55.8939 -55.8926 -55.8665
   -55.8561 -55.8407 -55.8260 -45.1543 -45.0924 -44.8426 -44.7526 -44.7418
   -44.6577 -44.6567 -44.6000 -44.5506 -32.2397 -32.2054 -32.1984 -32.1701
   -32.1594 -32.1533 -32.1435 -32.1355 -32.1297 -32.1163 -32.1133 -32.0981
   -32.0915 -32.0872 -32.0721 -32.0571 -32.0525 -32.0457 -32.0416 -32.0322
   -32.0240 -32.0190 -32.0142 -32.0125 -32.0048 -32.0008 -31.9966 -31.9900
   -31.9829 -31.9786 -31.9716 -31.9682 -31.9636 -31.9566 -31.9503 -31.9419
   -31.9336 -31.9273 -31.9223 -31.9200 -31.9175 -31.9080 -31.8982 -31.8953
   -31.8901 -31.8659 -31.8478 -31.8437 -15.9448 -15.5497 -15.1533 -14.8968
   -14.6189 -14.4742 -14.2648 -14.1372 -13.8998 -13.8665 -13.8184 -13.6968
   -13.6211 -13.5934 -13.4529 -13.3608 -13.3437 -13.3233 -13.2357 -13.2109
   -13.1978 -13.1761 -13.1362 -13.0981 -13.0883 -13.0737 -13.0688 -13.0412
   -13.0034 -12.9689 -12.9601 -12.9370  -7.8858  -7.5559  -7.2900  -7.0700
    -6.9964  -6.8924  -6.7687  -6.6083  -6.4094  -6.1351  -6.0734  -6.0524
    -6.0047  -5.9236  -5.8434  -5.7731  -5.6403  -5.6061  -5.5224  -5.4772
    -5.3915  -5.3506  -5.3034  -5.2618  -5.2320  -5.1944  -5.1692  -5.1008
    -5.0662  -5.0338  -5.0100  -4.9222  -4.8419  -4.8139  -4.7927  -4.7076
    -4.6511  -4.6185  -4.5882  -4.5458  -4.4662  -4.4317  -4.3666  -4.2914
    -4.2278  -4.2071  -4.1851  -4.1389  -4.0940  -4.0719  -4.0211  -3.9542
    -3.8974  -3.8623  -3.8349  -3.7762  -3.7429  -3.7136  -3.6938  -3.6601
    -3.6243  -3.5903  -3.5701  -3.4881  -3.4574  -3.4434  -3.3657  -3.3488
    -3.2816  -3.2481  -3.2359  -3.2155  -3.1109  -3.0718  -3.0276  -2.9817
    -2.8505  -2.8065  -2.7667  -2.7348  -2.6240  -2.6025  -2.5778  -2.5402
    -2.4909  -2.4519  -2.4207  -2.4056  -2.3670  -2.3507  -2.3073  -2.2670
    -2.2352  -2.2017  -2.1721  -2.1583  -2.0938  -2.0664  -2.0486  -1.9905
    -1.9252  -1.8858  -1.8521  -1.7927  -1.6890  -1.6402  -1.5821  -1.5185
    -1.4467  -1.4091  -1.2100  -1.1661  -1.0875  -1.0504  -1.0243  -0.9823
    -0.9443  -0.9006  -0.8360  -0.7810  -0.7456  -0.7008  -0.6546  -0.6217
    -0.5600  -0.5177  -0.4036   0.7748   0.8878   1.0421   1.2214   1.2966
     1.3549   1.3830   1.4092   1.4265   1.4624   1.4788   1.4850   1.5274
     1.5700   1.5901   1.6071   1.6304   1.6613   1.6765   1.6825   1.7036
     1.7291   1.7496   1.7895   1.8279   1.8717   1.9002   1.9382   1.9797
     1.9883

          k = 0.0000 0.3849 0.0000 (287830 PWs)   bands (ev):

   -73.3691 -73.2932 -73.1494 -56.0018 -55.9968 -55.9932 -55.9768 -55.9522
   -55.9407 -55.9380 -55.9371 -55.9213 -55.9150 -55.8939 -55.8926 -55.8665
   -55.8561 -55.8407 -55.8260 -45.1543 -45.0924 -44.8426 -44.7526 -44.7418
   -44.6577 -44.6567 -44.6000 -44.5506 -32.2383 -32.2040 -32.1950 -32.1709
   -32.1586 -32.1488 -32.1462 -32.1374 -32.1303 -32.1200 -32.1111 -32.0989
   -32.0939 -32.0906 -32.0781 -32.0605 -32.0572 -32.0487 -32.0407 -32.0344
   -32.0239 -32.0213 -32.0110 -32.0081 -32.0042 -32.0001 -31.9957 -31.9878
   -31.9801 -31.9731 -31.9689 -31.9655 -31.9626 -31.9524 -31.9450 -31.9408
   -31.9352 -31.9278 -31.9221 -31.9201 -31.9173 -31.9092 -31.9012 -31.8981
   -31.8910 -31.8668 -31.8501 -31.8449 -15.9438 -15.5499 -15.1512 -14.9079
   -14.6151 -14.4534 -14.3130 -14.1015 -13.9147 -13.8927 -13.8305 -13.6263
   -13.5849 -13.5536 -13.4542 -13.4062 -13.3727 -13.3190 -13.2475 -13.2293
   -13.2152 -13.1797 -13.1359 -13.1002 -13.0911 -13.0857 -13.0714 -13.0511
   -13.0048 -12.9472 -12.9372 -12.9270  -7.8809  -7.5480  -7.2876  -7.0674
    -6.9874  -6.8929  -6.7698  -6.6028  -6.3949  -6.1378  -6.0705  -6.0507
    -6.0248  -5.9156  -5.8659  -5.7816  -5.6226  -5.5838  -5.5192  -5.4781
    -5.4477  -5.3806  -5.3493  -5.2809  -5.2233  -5.1721  -5.1356  -5.1087
    -5.0700  -5.0164  -5.0111  -4.9365  -4.8558  -4.8279  -4.8021  -4.6982
    -4.6342  -4.5821  -4.5391  -4.5337  -4.4631  -4.4360  -4.3579  -4.3293
    -4.2783  -4.2356  -4.2283  -4.1778  -4.1302  -4.0551  -4.0274  -3.9941
    -3.9386  -3.9124  -3.8636  -3.8096  -3.7683  -3.7221  -3.6436  -3.6273
    -3.5953  -3.5594  -3.5055  -3.4622  -3.4349  -3.3954  -3.3443  -3.2577
    -3.2452  -3.1850  -3.1622  -3.1154  -3.0700  -3.0235  -2.9496  -2.9263
    -2.8890  -2.8445  -2.7987  -2.7632  -2.6777  -2.6191  -2.5841  -2.5564
    -2.5138  -2.4858  -2.4332  -2.3961  -2.3893  -2.3548  -2.3402  -2.3105
    -2.2661  -2.2370  -2.2113  -2.1737  -2.1288  -2.0994  -2.0611  -1.9750
    -1.9622  -1.9164  -1.8658  -1.8024  -1.6695  -1.6350  -1.5542  -1.4962
    -1.4489  -1.3971  -1.2593  -1.1536  -1.0878  -1.0455  -1.0210  -0.9924
    -0.9022  -0.8795  -0.8492  -0.7967  -0.7510  -0.6544  -0.6151  -0.5488
    -0.4930  -0.4605  -0.3781   0.7408   0.8681   1.0828   1.1711   1.2438
     1.3099   1.3205   1.3506   1.3763   1.4227   1.4824   1.5090   1.5423
     1.5538   1.5848   1.6163   1.6271   1.6574   1.6673   1.6792   1.7011
     1.7076   1.7449   1.7733   1.7976   1.8416   1.8795   1.8830   1.9077
     1.9273

          k = 0.0000-0.5774 0.0000 (287882 PWs)   bands (ev):

   -73.3691 -73.2932 -73.1494 -56.0018 -55.9968 -55.9932 -55.9768 -55.9522
   -55.9407 -55.9379 -55.9371 -55.9213 -55.9150 -55.8939 -55.8926 -55.8665
   -55.8561 -55.8407 -55.8260 -45.1543 -45.0924 -44.8426 -44.7526 -44.7418
   -44.6577 -44.6567 -44.6000 -44.5506 -32.2376 -32.2033 -32.1930 -32.1714
   -32.1581 -32.1490 -32.1444 -32.1380 -32.1333 -32.1208 -32.1087 -32.0990
   -32.0968 -32.0923 -32.0815 -32.0622 -32.0587 -32.0484 -32.0402 -32.0361
   -32.0243 -32.0226 -32.0095 -32.0060 -32.0038 -31.9999 -31.9951 -31.9871
   -31.9791 -31.9706 -31.9689 -31.9640 -31.9603 -31.9519 -31.9436 -31.9380
   -31.9358 -31.9271 -31.9220 -31.9206 -31.9155 -31.9095 -31.9065 -31.8983
   -31.8916 -31.8672 -31.8515 -31.8452 -15.9433 -15.5500 -15.1500 -14.9133
   -14.6132 -14.4406 -14.3345 -14.0887 -13.9307 -13.8920 -13.8363 -13.5852
   -13.5618 -13.5283 -13.4696 -13.4342 -13.3887 -13.3156 -13.2537 -13.2488
   -13.2091 -13.1801 -13.1364 -13.1074 -13.0996 -13.0880 -13.0713 -13.0504
   -13.0050 -12.9444 -12.9262 -12.9182  -7.8784  -7.5439  -7.2864  -7.0664
    -6.9823  -6.8934  -6.7702  -6.6002  -6.3870  -6.1396  -6.0706  -6.0482
    -6.0369  -5.9067  -5.8777  -5.7868  -5.6240  -5.5384  -5.5337  -5.4953
    -5.4690  -5.4112  -5.3581  -5.2645  -5.2058  -5.1802  -5.1264  -5.0928
    -5.0760  -5.0421  -5.0069  -4.9443  -4.8585  -4.8346  -4.8004  -4.7005
    -4.6570  -4.5852  -4.5451  -4.4940  -4.4469  -4.3830  -4.3433  -4.3228
    -4.3127  -4.2683  -4.2323  -4.2031  -4.1324  -4.0952  -4.0497  -3.9839
    -3.9779  -3.9343  -3.8828  -3.8159  -3.7698  -3.7101  -3.6225  -3.6149
    -3.5789  -3.5343  -3.4753  -3.4527  -3.4124  -3.3428  -3.3008  -3.2693
    -3.2469  -3.1614  -3.1147  -3.0997  -3.0887  -3.0706  -3.0258  -2.9502
    -2.8213  -2.7684  -2.7430  -2.6958  -2.6274  -2.5975  -2.5681  -2.5382
    -2.5180  -2.4705  -2.4443  -2.4274  -2.4175  -2.3953  -2.3779  -2.3530
    -2.3067  -2.2968  -2.2729  -2.2018  -2.1916  -2.1120  -2.0366  -2.0120
    -1.9725  -1.9420  -1.8271  -1.8078  -1.6596  -1.6273  -1.5311  -1.4790
    -1.4228  -1.3909  -1.2822  -1.1500  -1.0883  -1.0559  -1.0235  -0.9830
    -0.8956  -0.8567  -0.8442  -0.8061  -0.7532  -0.6532  -0.5891  -0.5147
    -0.4567  -0.4328  -0.3635   0.7231   0.8577   1.1049   1.1452   1.2151
     1.2768   1.2807   1.3237   1.3522   1.4300   1.4855   1.5107   1.5291
     1.5617   1.5923   1.6077   1.6372   1.6468   1.6483   1.6749   1.7134
     1.7218   1.7499   1.7777   1.7925   1.8140   1.8324   1.8475   1.8518
     1.8804

          k = 0.1667 0.2887 0.0000 (287748 PWs)   bands (ev):

   -73.3691 -73.2932 -73.1494 -56.0018 -55.9968 -55.9932 -55.9768 -55.9522
   -55.9407 -55.9380 -55.9371 -55.9213 -55.9150 -55.8939 -55.8926 -55.8665
   -55.8561 -55.8407 -55.8260 -45.1543 -45.0924 -44.8426 -44.7526 -44.7418
   -44.6577 -44.6567 -44.6000 -44.5506 -32.2388 -32.2039 -32.1943 -32.1706
   -32.1596 -32.1527 -32.1446 -32.1379 -32.1331 -32.1197 -32.1094 -32.1009
   -32.0939 -32.0864 -32.0719 -32.0590 -32.0544 -32.0493 -32.0411 -32.0332
   -32.0251 -32.0191 -32.0150 -32.0107 -32.0039 -32.0000 -31.9946 -31.9902
   -31.9786 -31.9750 -31.9710 -31.9674 -31.9618 -31.9540 -31.9486 -31.9417
   -31.9339 -31.9286 -31.9223 -31.9209 -31.9144 -31.9080 -31.8989 -31.8981
   -31.8899 -31.8674 -31.8488 -31.8456 -15.9431 -15.5533 -15.1502 -14.8983
   -14.6246 -14.4581 -14.2944 -14.1135 -13.9446 -13.8860 -13.7746 -13.6846
   -13.5996 -13.5281 -13.4520 -13.4231 -13.3343 -13.2939 -13.2721 -13.2457
   -13.2199 -13.1648 -13.1403 -13.1133 -13.1024 -13.0684 -13.0560 -13.0319
   -13.0115 -12.9709 -12.9370 -12.9229  -7.8810  -7.5508  -7.2908  -7.0759
    -6.9846  -6.8890  -6.7695  -6.6096  -6.3974  -6.1385  -6.0870  -6.0461
    -5.9979  -5.9080  -5.8556  -5.7591  -5.6424  -5.6177  -5.5378  -5.4860
    -5.4067  -5.3508  -5.2985  -5.2722  -5.2432  -5.1890  -5.1607  -5.1160
    -5.0944  -5.0096  -4.9880  -4.9330  -4.8704  -4.8137  -4.7776  -4.7112
    -4.6679  -4.5940  -4.5556  -4.5315  -4.4663  -4.4298  -4.3872  -4.3352
    -4.2831  -4.2304  -4.2167  -4.1752  -4.1139  -4.0509  -4.0374  -3.9963
    -3.9265  -3.8990  -3.8494  -3.7948  -3.7170  -3.6758  -3.6536  -3.6308
    -3.5998  -3.5564  -3.4990  -3.4676  -3.4396  -3.4020  -3.3554  -3.3100
    -3.2471  -3.2296  -3.1977  -3.1135  -3.0562  -3.0184  -2.9750  -2.9246
    -2.8892  -2.8527  -2.8138  -2.7998  -2.6923  -2.6295  -2.5673  -2.5326
    -2.5008  -2.4910  -2.4443  -2.4001  -2.3801  -2.3476  -2.3242  -2.2922
    -2.2714  -2.2220  -2.1741  -2.1618  -2.0992  -2.0718  -2.0234  -1.9729
    -1.9498  -1.9039  -1.8825  -1.8137  -1.7324  -1.6389  -1.5929  -1.5563
    -1.4896  -1.3300  -1.1932  -1.1518  -1.0837  -1.0519  -1.0076  -0.9807
    -0.9240  -0.8979  -0.8427  -0.7749  -0.7495  -0.6867  -0.6064  -0.5859
    -0.5218  -0.4698  -0.3829   0.7547   0.8970   1.0449   1.1857   1.2477
     1.3304   1.3605   1.3718   1.4075   1.4260   1.4549   1.5052   1.5215
     1.5528   1.5818   1.6072   1.6302   1.6557   1.6655   1.6947   1.7104
     1.7314   1.7507   1.7773   1.8019   1.8350   1.8791   1.9032   1.9247
     1.9389

          k = 0.1667 0.4811 0.0000 (287831 PWs)   bands (ev):

   -73.3691 -73.2932 -73.1494 -56.0018 -55.9968 -55.9932 -55.9768 -55.9522
   -55.9407 -55.9380 -55.9371 -55.9213 -55.9150 -55.8939 -55.8926 -55.8665
   -55.8561 -55.8407 -55.8260 -45.1543 -45.0924 -44.8426 -44.7526 -44.7418
   -44.6577 -44.6567 -44.6000 -44.5506 -32.2378 -32.2026 -32.1916 -32.1710
   -32.1595 -32.1499 -32.1450 -32.1384 -32.1350 -32.1232 -32.1093 -32.1004
   -32.0937 -32.0894 -32.0773 -32.0631 -32.0563 -32.0520 -32.0403 -32.0332
   -32.0247 -32.0208 -32.0125 -32.0084 -32.0030 -32.0001 -31.9941 -31.9898
   -31.9764 -31.9718 -31.9693 -31.9644 -31.9607 -31.9514 -31.9438 -31.9396
   -31.9348 -31.9274 -31.9222 -31.9219 -31.9142 -31.9089 -31.9045 -31.8983
   -31.8912 -31.8683 -31.8507 -31.8460 -15.9423 -15.5533 -15.1482 -14.9082
   -14.6202 -14.4411 -14.3246 -14.0916 -13.9633 -13.9072 -13.7634 -13.6465
   -13.5559 -13.5225 -13.4564 -13.4165 -13.3747 -13.3048 -13.2837 -13.2462
   -13.2137 -13.1857 -13.1541 -13.1126 -13.0969 -13.0826 -13.0623 -13.0348
   -13.0091 -12.9510 -12.9341 -12.9069  -7.8771  -7.5441  -7.2895  -7.0751
    -6.9775  -6.8903  -6.7694  -6.6068  -6.3857  -6.1393  -6.0855  -6.0463
    -6.0136  -5.8950  -5.8824  -5.7630  -5.6423  -5.5883  -5.5349  -5.4842
    -5.4440  -5.3818  -5.3221  -5.2676  -5.2206  -5.1748  -5.1579  -5.1216
    -5.0914  -5.0341  -4.9869  -4.9294  -4.8830  -4.8159  -4.7710  -4.7058
    -4.6719  -4.5857  -4.5322  -4.5020  -4.4751  -4.4238  -4.3977  -4.3473
    -4.2803  -4.2695  -4.2495  -4.2035  -4.1666  -4.1093  -4.0321  -4.0024
    -3.9616  -3.9050  -3.8576  -3.7586  -3.7096  -3.6700  -3.6135  -3.5971
    -3.5858  -3.5170  -3.4824  -3.4271  -3.3999  -3.3635  -3.2908  -3.2674
    -3.2252  -3.1799  -3.1548  -3.1382  -3.0946  -3.0787  -3.0141  -2.9500
    -2.9230  -2.8839  -2.7334  -2.6519  -2.6254  -2.5841  -2.5658  -2.5242
    -2.5047  -2.4988  -2.4707  -2.4114  -2.3930  -2.3694  -2.3551  -2.3236
    -2.2972  -2.2599  -2.2247  -2.2037  -2.1416  -2.1162  -2.0660  -2.0383
    -1.9705  -1.9288  -1.8924  -1.8099  -1.6951  -1.6389  -1.5889  -1.5293
    -1.4433  -1.3184  -1.2176  -1.1374  -1.0812  -1.0628  -1.0028  -0.9831
    -0.9240  -0.8839  -0.8316  -0.7834  -0.7420  -0.6454  -0.5892  -0.5539
    -0.4749  -0.4127  -0.3542   0.7271   0.8782   1.0725   1.1429   1.1755
     1.2746   1.3465   1.3570   1.3852   1.4158   1.4683   1.5057   1.5125
     1.5584   1.5902   1.6052   1.6101   1.6450   1.6618   1.6758   1.6976
     1.7246   1.7448   1.7732   1.7872   1.8250   1.8400   1.8539   1.8706
     1.8870

          k = 0.3333 0.5774 0.0000 (287970 PWs)   bands (ev):

   -73.3691 -73.2932 -73.1494 -56.0018 -55.9968 -55.9932 -55.9768 -55.9522
   -55.9407 -55.9380 -55.9371 -55.9213 -55.9150 -55.8939 -55.8926 -55.8665
   -55.8561 -55.8407 -55.8260 -45.1543 -45.0924 -44.8426 -44.7526 -44.7418
   -44.6577 -44.6567 -44.6000 -44.5506 -32.2382 -32.1996 -32.1884 -32.1707
   -32.1623 -32.1516 -32.1457 -32.1405 -32.1368 -32.1252 -32.1100 -32.1029
   -32.0892 -32.0851 -32.0755 -32.0678 -32.0562 -32.0501 -32.0394 -32.0315
   -32.0273 -32.0222 -32.0133 -32.0086 -32.0014 -31.9998 -31.9946 -31.9900
   -31.9775 -31.9732 -31.9682 -31.9641 -31.9603 -31.9496 -31.9448 -31.9385
   -31.9325 -31.9273 -31.9237 -31.9218 -31.9136 -31.9080 -31.9040 -31.8980
   -31.8911 -31.8710 -31.8507 -31.8464 -15.9401 -15.5598 -15.1432 -14.9048
   -14.6274 -14.4419 -14.3025 -14.0988 -14.0223 -13.8967 -13.7132 -13.6531
   -13.5540 -13.5248 -13.4215 -13.3945 -13.3582 -13.3373 -13.3237 -13.2593
   -13.2160 -13.1913 -13.1462 -13.1317 -13.0995 -13.0776 -13.0656 -13.0152
   -13.0020 -12.9705 -12.9262 -12.8961  -7.8725  -7.5409  -7.2960  -7.0920
    -6.9681  -6.8864  -6.7704  -6.6166  -6.3743  -6.1407  -6.1166  -6.0427
    -5.9838  -5.8939  -5.8419  -5.7460  -5.6592  -5.5904  -5.5462  -5.4705
    -5.4143  -5.3707  -5.3021  -5.2737  -5.2192  -5.2001  -5.1875  -5.1411
    -5.1142  -5.0431  -4.9883  -4.9208  -4.8730  -4.8226  -4.7814  -4.7028
    -4.6309  -4.6048  -4.5601  -4.4950  -4.4844  -4.4655  -4.4450  -4.3832
    -4.3259  -4.2927  -4.2527  -4.2006  -4.1938  -4.1146  -4.0369  -3.9870
    -3.9225  -3.8964  -3.7874  -3.7296  -3.6849  -3.6405  -3.5930  -3.5510
    -3.5284  -3.4728  -3.4551  -3.4187  -3.3930  -3.3176  -3.2997  -3.2576
    -3.2358  -3.1931  -3.1677  -3.1429  -3.1151  -3.0873  -3.0573  -2.9804
    -2.9272  -2.8756  -2.8615  -2.7293  -2.6384  -2.5756  -2.5206  -2.4901
    -2.4717  -2.4484  -2.4297  -2.3814  -2.3700  -2.3402  -2.3185  -2.3123
    -2.2954  -2.2766  -2.2322  -2.2038  -2.1878  -2.1281  -2.1050  -2.0384
    -2.0187  -1.9731  -1.9009  -1.8178  -1.7642  -1.6950  -1.5968  -1.5453
    -1.4317  -1.2506  -1.1452  -1.1314  -1.0869  -1.0678  -1.0363  -0.9688
    -0.9205  -0.8782  -0.8139  -0.7725  -0.7094  -0.6619  -0.6027  -0.5340
    -0.4699  -0.4163  -0.3288   0.7407   0.9002   1.0344   1.1248   1.1343
     1.2745   1.3512   1.3895   1.4200   1.4425   1.4643   1.4913   1.5089
     1.5380   1.5640   1.5887   1.5979   1.6280   1.6361   1.6726   1.7090
     1.7197   1.7441   1.7576   1.7772   1.7883   1.8261   1.8495   1.8595
     1.8836

          k =-0.1667 0.0962 0.0000 (287730 PWs)   bands (ev):

   -73.3691 -73.2932 -73.1494 -56.0018 -55.9968 -55.9932 -55.9768 -55.9522
   -55.9407 -55.9380 -55.9371 -55.9213 -55.9150 -55.8939 -55.8926 -55.8665
   -55.8561 -55.8407 -55.8260 -45.1543 -45.0924 -44.8426 -44.7526 -44.7418
   -44.6577 -44.6567 -44.6000 -44.5506 -32.2401 -32.2041 -32.1981 -32.1695
   -32.1604 -32.1550 -32.1437 -32.1352 -32.1301 -32.1197 -32.1106 -32.0990
   -32.0913 -32.0846 -32.0719 -32.0590 -32.0507 -32.0465 -32.0376 -32.0329
   -32.0237 -32.0210 -32.0147 -32.0095 -32.0036 -32.0015 -31.9967 -31.9943
   -31.9863 -31.9774 -31.9718 -31.9681 -31.9611 -31.9578 -31.9491 -31.9423
   -31.9337 -31.9272 -31.9223 -31.9211 -31.9168 -31.9068 -31.8983 -31.8948
   -31.8902 -31.8665 -31.8485 -31.8431 -15.9439 -15.5529 -15.1508 -14.8945
   -14.6215 -14.4776 -14.2346 -14.1599 -13.9547 -13.8505 -13.7612 -13.7129
   -13.6563 -13.5499 -13.4468 -13.3987 -13.3361 -13.2834 -13.2548 -13.2308
   -13.2135 -13.1506 -13.1371 -13.1190 -13.0966 -13.0567 -13.0440 -13.0306
   -13.0102 -13.0002 -12.9530 -12.9292  -7.8841  -7.5550  -7.2938  -7.0791
    -6.9945  -6.8891  -6.7673  -6.6176  -6.4034  -6.1391  -6.0756  -6.0567
    -5.9975  -5.9165  -5.8127  -5.7717  -5.6499  -5.6007  -5.5228  -5.4687
    -5.3853  -5.3566  -5.2931  -5.2522  -5.2231  -5.2056  -5.1594  -5.1351
    -5.0778  -5.0469  -4.9942  -4.9509  -4.8482  -4.8247  -4.7702  -4.7168
    -4.6694  -4.6324  -4.5697  -4.5159  -4.4726  -4.4447  -4.3731  -4.3287
    -4.2398  -4.2110  -4.1702  -4.1340  -4.0906  -4.0628  -3.9999  -3.9637
    -3.9178  -3.8659  -3.8256  -3.7698  -3.7312  -3.6968  -3.6692  -3.6625
    -3.6104  -3.5719  -3.5528  -3.4888  -3.4785  -3.4356  -3.3662  -3.3378
    -3.2963  -3.2690  -3.2185  -3.1822  -3.1628  -3.0994  -2.9901  -2.9614
    -2.8729  -2.7998  -2.7601  -2.7213  -2.6936  -2.6230  -2.5635  -2.5358
    -2.4942  -2.4524  -2.4272  -2.4121  -2.3714  -2.3225  -2.2840  -2.2608
    -2.2362  -2.1886  -2.1624  -2.1431  -2.1027  -2.0632  -2.0379  -1.9853
    -1.9546  -1.8882  -1.8614  -1.8077  -1.7349  -1.6818  -1.5957  -1.4980
    -1.4520  -1.3363  -1.2070  -1.1567  -1.1084  -1.0592  -1.0284  -0.9725
    -0.9198  -0.8994  -0.8483  -0.7696  -0.7302  -0.6956  -0.6696  -0.6314
    -0.5519  -0.5242  -0.4158   0.7835   0.9233   1.0138   1.2265   1.3076
     1.3322   1.3715   1.4075   1.4274   1.4609   1.4819   1.4994   1.5286
     1.5578   1.5877   1.6268   1.6417   1.6473   1.6631   1.6885   1.7043
     1.7255   1.7482   1.7705   1.8553   1.8892   1.9198   1.9483   1.9634
     1.9949

          k = 0.1667 0.0962 0.0000 (287730 PWs)   bands (ev):

   -73.3691 -73.2932 -73.1494 -56.0018 -55.9968 -55.9932 -55.9768 -55.9522
   -55.9407 -55.9380 -55.9371 -55.9213 -55.9150 -55.8940 -55.8926 -55.8665
   -55.8561 -55.8407 -55.8260 -45.1543 -45.0924 -44.8426 -44.7526 -44.7418
   -44.6577 -44.6567 -44.6000 -44.5506 -32.2399 -32.2048 -32.1973 -32.1698
   -32.1600 -32.1553 -32.1438 -32.1366 -32.1307 -32.1180 -32.1100 -32.0987
   -32.0942 -32.0842 -32.0693 -32.0576 -32.0505 -32.0447 -32.0395 -32.0330
   -32.0240 -32.0207 -32.0173 -32.0120 -32.0037 -31.9992 -31.9962 -31.9928
   -31.9848 -31.9764 -31.9738 -31.9690 -31.9617 -31.9585 -31.9496 -31.9421
   -31.9336 -31.9278 -31.9223 -31.9209 -31.9151 -31.9071 -31.8982 -31.8953
   -31.8893 -31.8666 -31.8478 -31.8440 -15.9439 -15.5531 -15.1514 -14.8914
   -14.6255 -14.4752 -14.2458 -14.1530 -13.9395 -13.8449 -13.7930 -13.7023
   -13.6503 -13.5518 -13.4495 -13.3984 -13.3283 -13.2836 -13.2607 -13.2367
   -13.2124 -13.1407 -13.1344 -13.1190 -13.1029 -13.0620 -13.0460 -13.0252
   -13.0134 -12.9947 -12.9540 -12.9296  -7.8845  -7.5562  -7.2930  -7.0780
    -6.9927  -6.8886  -6.7685  -6.6151  -6.4058  -6.1383  -6.0821  -6.0543
    -5.9887  -5.9120  -5.8232  -5.7663  -5.6511  -5.6203  -5.5279  -5.4818
    -5.3817  -5.3376  -5.2984  -5.2503  -5.2244  -5.1954  -5.1635  -5.1175
    -5.0771  -5.0431  -4.9976  -4.9566  -4.8539  -4.8132  -4.7789  -4.7244
    -4.6538  -4.6298  -4.5723  -4.5304  -4.4745  -4.4219  -4.3805  -4.3332
    -4.2509  -4.2123  -4.1782  -4.0922  -4.0829  -4.0653  -4.0131  -3.9640
    -3.9194  -3.8830  -3.8200  -3.7838  -3.7341  -3.6949  -3.6817  -3.6504
    -3.6152  -3.5779  -3.5514  -3.4969  -3.4753  -3.4321  -3.3728  -3.3314
    -3.2978  -3.2533  -3.2074  -3.1783  -3.1425  -3.0857  -3.0323  -2.9427
    -2.9059  -2.7941  -2.7546  -2.7017  -2.6903  -2.6547  -2.5481  -2.5285
    -2.4928  -2.4677  -2.4348  -2.3966  -2.3624  -2.3212  -2.3032  -2.2823
    -2.2213  -2.1915  -2.1601  -2.1048  -2.0968  -2.0636  -2.0379  -2.0188
    -1.9476  -1.9180  -1.8268  -1.7972  -1.7308  -1.6888  -1.6172  -1.4916
    -1.4702  -1.3298  -1.2072  -1.1394  -1.0874  -1.0780  -1.0410  -0.9734
    -0.9030  -0.8886  -0.8282  -0.8040  -0.7459  -0.7262  -0.6374  -0.6171
    -0.5734  -0.5193  -0.4090   0.7815   0.9182   1.0156   1.2241   1.3181
     1.3402   1.3626   1.4112   1.4408   1.4595   1.4760   1.5047   1.5336
     1.5582   1.5692   1.5871   1.6413   1.6503   1.6737   1.6977   1.7121
     1.7271   1.7450   1.7964   1.8608   1.8834   1.9082   1.9287   1.9527
     1.9830

          k =-0.3333 0.1925 0.0000 (287830 PWs)   bands (ev):

   -73.3691 -73.2932 -73.1494 -56.0018 -55.9968 -55.9932 -55.9768 -55.9522
   -55.9407 -55.9380 -55.9371 -55.9213 -55.9150 -55.8939 -55.8926 -55.8665
   -55.8561 -55.8407 -55.8260 -45.1543 -45.0924 -44.8426 -44.7526 -44.7418
   -44.6577 -44.6567 -44.6000 -44.5506 -32.2395 -32.1996 -32.1937 -32.1699
   -32.1630 -32.1542 -32.1446 -32.1368 -32.1326 -32.1239 -32.1125 -32.0996
   -32.0909 -32.0821 -32.0747 -32.0630 -32.0576 -32.0480 -32.0378 -32.0355
   -32.0236 -32.0218 -32.0097 -32.0062 -32.0041 -32.0011 -31.9961 -31.9938
   -31.9811 -31.9765 -31.9709 -31.9658 -31.9586 -31.9527 -31.9470 -31.9384
   -31.9345 -31.9276 -31.9228 -31.9221 -31.9167 -31.9053 -31.9003 -31.8968
   -31.8915 -31.8691 -31.8512 -31.8436 -15.9410 -15.5595 -15.1438 -14.9009
   -14.6250 -14.4611 -14.2547 -14.1317 -14.0275 -13.8618 -13.7619 -13.6387
   -13.6000 -13.4886 -13.4563 -13.4123 -13.3745 -13.3310 -13.2757 -13.2315
   -13.1987 -13.1948 -13.1497 -13.1236 -13.1012 -13.0602 -13.0315 -13.0207
   -13.0116 -13.0043 -12.9270 -12.9131  -7.8757  -7.5451  -7.2992  -7.0945
    -6.9800  -6.8843  -6.7706  -6.6232  -6.3803  -6.1487  -6.0954  -6.0529
    -5.9891  -5.9047  -5.7972  -5.7517  -5.6411  -5.5702  -5.5413  -5.4279
    -5.4119  -5.3771  -5.3309  -5.2886  -5.2325  -5.1995  -5.1813  -5.1503
    -5.1021  -5.0472  -4.9762  -4.9380  -4.8797  -4.8333  -4.7908  -4.7298
    -4.6306  -4.5987  -4.5428  -4.5149  -4.4573  -4.4489  -4.4132  -4.3655
    -4.3009  -4.2669  -4.2545  -4.1730  -4.1272  -4.0619  -4.0147  -3.9622
    -3.9068  -3.8726  -3.8167  -3.8037  -3.7172  -3.6714  -3.6327  -3.6104
    -3.5723  -3.5420  -3.4986  -3.4697  -3.4308  -3.3817  -3.3503  -3.2882
    -3.2478  -3.2099  -3.1665  -3.0908  -3.0538  -3.0206  -2.9764  -2.9241
    -2.8838  -2.8482  -2.7949  -2.7320  -2.7126  -2.6712  -2.6556  -2.5872
    -2.5162  -2.4896  -2.4383  -2.4064  -2.3629  -2.3379  -2.3245  -2.2796
    -2.2383  -2.2126  -2.1832  -2.1597  -2.1321  -2.0915  -2.0612  -2.0414
    -1.9755  -1.8867  -1.8449  -1.8095  -1.7801  -1.6858  -1.6080  -1.5402
    -1.4527  -1.2636  -1.2115  -1.1492  -1.1267  -1.0374  -1.0143  -0.9425
    -0.9174  -0.8993  -0.8417  -0.7622  -0.7241  -0.6670  -0.6032  -0.5830
    -0.4945  -0.4640  -0.4071   0.7841   0.9428   0.9920   1.1908   1.2596
     1.2910   1.3147   1.3300   1.3931   1.4455   1.4749   1.5190   1.5299
     1.5542   1.5763   1.5971   1.6226   1.6322   1.6598   1.6861   1.7093
     1.7227   1.7445   1.7746   1.8296   1.8519   1.8686   1.9068   1.9139
     1.9466

          k = 0.3333 0.1925 0.0000 (287830 PWs)   bands (ev):

   -73.3691 -73.2932 -73.1494 -56.0018 -55.9968 -55.9932 -55.9768 -55.9522
   -55.9407 -55.9380 -55.9370 -55.9213 -55.9150 -55.8940 -55.8926 -55.8665
   -55.8561 -55.8407 -55.8260 -45.1543 -45.0924 -44.8426 -44.7526 -44.7418
   -44.6577 -44.6567 -44.6000 -44.5506 -32.2390 -32.2016 -32.1907 -32.1704
   -32.1605 -32.1580 -32.1458 -32.1389 -32.1350 -32.1193 -32.1087 -32.1041
   -32.0938 -32.0801 -32.0704 -32.0630 -32.0524 -32.0464 -32.0424 -32.0330
   -32.0240 -32.0223 -32.0175 -32.0101 -32.0020 -31.9983 -31.9956 -31.9889
   -31.9818 -31.9738 -31.9716 -31.9675 -31.9607 -31.9547 -31.9478 -31.9418
   -31.9333 -31.9299 -31.9224 -31.9208 -31.9120 -31.9061 -31.9000 -31.8977
   -31.8887 -31.8698 -31.8493 -31.8462 -15.9409 -15.5599 -15.1458 -14.8918
   -14.6337 -14.4590 -14.2746 -14.1257 -13.9947 -13.8445 -13.8102 -13.6263
   -13.6015 -13.4761 -13.4606 -13.4270 -13.3648 -13.3290 -13.2865 -13.2227
   -13.2132 -13.1802 -13.1474 -13.1240 -13.1046 -13.0641 -13.0388 -13.0205
   -13.0045 -12.9994 -12.9277 -12.9140  -7.8768  -7.5489  -7.2963  -7.0910
    -6.9744  -6.8853  -6.7708  -6.6171  -6.3865  -6.1478  -6.1121  -6.0453
    -5.9639  -5.8955  -5.8003  -5.7541  -5.6735  -5.6177  -5.5540  -5.4685
    -5.3976  -5.3578  -5.3062  -5.2730  -5.2261  -5.1859  -5.1615  -5.1328
    -5.1168  -5.0366  -4.9913  -4.9356  -4.8602  -4.8399  -4.7661  -4.7374
    -4.6651  -4.5765  -4.5601  -4.5157  -4.4839  -4.4316  -4.4093  -4.3628
    -4.3067  -4.2687  -4.2208  -4.1650  -4.1097  -4.0608  -4.0543  -3.9785
    -3.9173  -3.8852  -3.8488  -3.7537  -3.7246  -3.6798  -3.6503  -3.5943
    -3.5839  -3.5450  -3.4921  -3.4745  -3.4392  -3.3932  -3.3308  -3.2619
    -3.2532  -3.1910  -3.1628  -3.1027  -3.0442  -3.0027  -2.9843  -2.9011
    -2.8845  -2.8383  -2.8084  -2.7733  -2.7098  -2.6894  -2.6448  -2.5756
    -2.5268  -2.4732  -2.4288  -2.4156  -2.3776  -2.3365  -2.3151  -2.3113
    -2.2518  -2.2221  -2.1748  -2.1521  -2.1019  -2.0642  -2.0301  -2.0056
    -1.9733  -1.9205  -1.8876  -1.8198  -1.7629  -1.6776  -1.6407  -1.5426
    -1.4808  -1.2581  -1.1975  -1.1301  -1.0933  -1.0682  -0.9985  -0.9543
    -0.9073  -0.8686  -0.8381  -0.8054  -0.7399  -0.6891  -0.6074  -0.5634
    -0.5032  -0.4605  -0.3927   0.7730   0.9310   0.9981   1.1844   1.2757
     1.2861   1.3243   1.3513   1.4163   1.4404   1.4677   1.4983   1.5303
     1.5558   1.5679   1.5845   1.6165   1.6362   1.6555   1.6933   1.7203
     1.7399   1.7531   1.7774   1.8106   1.8215   1.8760   1.8980   1.9226
     1.9449

          k = 0.5000-0.2887 0.0000 (287882 PWs)   bands (ev):

   -73.3691 -73.2932 -73.1494 -56.0018 -55.9968 -55.9932 -55.9768 -55.9522
   -55.9407 -55.9380 -55.9371 -55.9213 -55.9150 -55.8939 -55.8926 -55.8665
   -55.8561 -55.8407 -55.8260 -45.1543 -45.0924 -44.8426 -44.7526 -44.7418
   -44.6577 -44.6567 -44.6000 -44.5506 -32.2392 -32.1970 -32.1904 -32.1718
   -32.1636 -32.1536 -32.1443 -32.1392 -32.1336 -32.1263 -32.1134 -32.0991
   -32.0908 -32.0807 -32.0756 -32.0636 -32.0619 -32.0485 -32.0399 -32.0358
   -32.0236 -32.0223 -32.0080 -32.0059 -32.0044 -32.0001 -31.9943 -31.9918
   -31.9801 -31.9779 -31.9669 -31.9657 -31.9581 -31.9514 -31.9473 -31.9357
   -31.9342 -31.9256 -31.9236 -31.9221 -31.9170 -31.9058 -31.9013 -31.8972
   -31.8924 -31.8710 -31.8525 -31.8438 -15.9395 -15.5627 -15.1403 -14.9040
   -14.6277 -14.4500 -14.2660 -14.1052 -14.0698 -13.8658 -13.7686 -13.5761
   -13.5538 -13.5146 -13.4657 -13.3991 -13.3915 -13.3256 -13.3178 -13.2485
   -13.2041 -13.1698 -13.1618 -13.1388 -13.0974 -13.0712 -13.0294 -13.0237
   -13.0040 -12.9996 -12.9166 -12.9057  -7.8713  -7.5402  -7.3018  -7.1023
    -6.9712  -6.8825  -6.7746  -6.6228  -6.3695  -6.1509  -6.1108  -6.0505
    -5.9831  -5.9002  -5.7930  -5.7371  -5.6361  -5.5630  -5.5178  -5.4536
    -5.4067  -5.3764  -5.3323  -5.3006  -5.2443  -5.2284  -5.2101  -5.1640
    -5.0668  -5.0432  -4.9829  -4.9366  -4.9021  -4.8261  -4.8014  -4.7257
    -4.6278  -4.5809  -4.5478  -4.5128  -4.4943  -4.4136  -4.3939  -4.3741
    -4.3268  -4.2989  -4.2932  -4.2025  -4.1471  -4.0487  -4.0172  -3.9953
    -3.9087  -3.8658  -3.8401  -3.7889  -3.6925  -3.6529  -3.6207  -3.5597
    -3.5431  -3.4870  -3.4687  -3.4521  -3.4093  -3.4029  -3.3318  -3.3054
    -3.2560  -3.1814  -3.1445  -3.1078  -3.0755  -2.9879  -2.9474  -2.9245
    -2.8881  -2.8303  -2.7997  -2.6854  -2.6531  -2.6171  -2.5949  -2.5566
    -2.5150  -2.4995  -2.4747  -2.4532  -2.3946  -2.3880  -2.3769  -2.3159
    -2.2986  -2.2746  -2.2174  -2.1822  -2.1307  -2.1306  -2.0910  -2.0275
    -2.0010  -1.8601  -1.8390  -1.7963  -1.7731  -1.6751  -1.6060  -1.5517
    -1.4594  -1.2432  -1.1935  -1.1768  -1.0996  -1.0452  -1.0112  -0.9389
    -0.8916  -0.8891  -0.8434  -0.7583  -0.7344  -0.6528  -0.5869  -0.5300
    -0.4949  -0.4317  -0.3866   0.7892   0.9358   0.9840   1.1695   1.2331
     1.2597   1.2712   1.3075   1.4149   1.4413   1.4644   1.5170   1.5316
     1.5569   1.5666   1.5769   1.6254   1.6463   1.6580   1.6845   1.7013
     1.7249   1.7504   1.7615   1.7989   1.8202   1.8333   1.8719   1.9037
     1.9205

          k =-0.5000-0.2887 0.0000 (287882 PWs)   bands (ev):

   -73.3691 -73.2932 -73.1494 -56.0018 -55.9968 -55.9932 -55.9768 -55.9522
   -55.9407 -55.9380 -55.9370 -55.9213 -55.9150 -55.8940 -55.8926 -55.8665
   -55.8561 -55.8407 -55.8260 -45.1543 -45.0924 -44.8426 -44.7526 -44.7418
   -44.6577 -44.6567 -44.6000 -44.5506 -32.2385 -32.1998 -32.1861 -32.1710
   -32.1612 -32.1603 -32.1473 -32.1402 -32.1368 -32.1193 -32.1099 -32.1054
   -32.0923 -32.0781 -32.0706 -32.0670 -32.0525 -32.0496 -32.0418 -32.0336
   -32.0247 -32.0220 -32.0181 -32.0097 -32.0000 -31.9976 -31.9952 -31.9874
   -31.9791 -31.9747 -31.9721 -31.9636 -31.9605 -31.9536 -31.9474 -31.9425
   -31.9320 -31.9306 -31.9226 -31.9199 -31.9106 -31.9052 -31.9022 -31.8980
   -31.8881 -31.8723 -31.8499 -31.8473 -15.9394 -15.5633 -15.1430 -14.8921
   -14.6375 -14.4507 -14.2868 -14.1118 -14.0196 -13.8422 -13.8212 -13.5918
   -13.5187 -13.5139 -13.4601 -13.4264 -13.3720 -13.3572 -13.3046 -13.2410
   -13.1871 -13.1782 -13.1645 -13.1483 -13.0882 -13.0786 -13.0401 -13.0159
   -13.0032 -12.9933 -12.9172 -12.9067  -7.8729  -7.5452  -7.2977  -7.0974
    -6.9637  -6.8860  -6.7721  -6.6159  -6.3767  -6.1504  -6.1325  -6.0403
    -5.9444  -5.8977  -5.7658  -5.7515  -5.7010  -5.6258  -5.5595  -5.4493
    -5.3925  -5.3840  -5.3005  -5.2778  -5.2480  -5.1817  -5.1723  -5.1506
    -5.0915  -5.0477  -4.9825  -4.9674  -4.8858  -4.7858  -4.7567  -4.7439
    -4.6727  -4.5714  -4.5531  -4.5352  -4.4763  -4.4379  -4.3892  -4.3656
    -4.3327  -4.3082  -4.2672  -4.1959  -4.1197  -4.0607  -4.0532  -3.9849
    -3.9387  -3.9004  -3.8532  -3.7355  -3.7016  -3.6585  -3.6113  -3.5721
    -3.5510  -3.5034  -3.4816  -3.4353  -3.4101  -3.3949  -3.3297  -3.2776
    -3.2617  -3.1729  -3.1581  -3.0983  -3.0322  -2.9798  -2.9618  -2.9147
    -2.8926  -2.8444  -2.7923  -2.7304  -2.6364  -2.6017  -2.5689  -2.5604
    -2.5315  -2.5119  -2.5000  -2.4634  -2.4094  -2.3862  -2.3724  -2.3329
    -2.2970  -2.2394  -2.2106  -2.1732  -2.1563  -2.0693  -2.0462  -2.0174
    -1.9678  -1.9125  -1.8787  -1.8391  -1.7492  -1.6507  -1.6193  -1.5860
    -1.4854  -1.2347  -1.1730  -1.1585  -1.0833  -1.0520  -0.9789  -0.9641
    -0.8915  -0.8545  -0.8362  -0.8111  -0.7516  -0.6679  -0.5936  -0.5423
    -0.4686  -0.4245  -0.3831   0.7706   0.9235   0.9928   1.1620   1.2430
     1.2607   1.2854   1.3362   1.3975   1.4459   1.5005   1.5068   1.5128
     1.5549   1.5676   1.5975   1.6147   1.6275   1.6687   1.6726   1.6981
     1.7204   1.7349   1.7860   1.7968   1.8035   1.8383   1.8670   1.8878
     1.9330

          k =-0.1667 0.2887 0.0000 (287748 PWs)   bands (ev):

   -73.3691 -73.2932 -73.1494 -56.0018 -55.9968 -55.9932 -55.9768 -55.9522
   -55.9407 -55.9380 -55.9371 -55.9213 -55.9150 -55.8939 -55.8926 -55.8665
   -55.8561 -55.8407 -55.8260 -45.1543 -45.0924 -44.8426 -44.7526 -44.7418
   -44.6577 -44.6567 -44.6000 -44.5506 -32.2392 -32.2027 -32.1960 -32.1699
   -32.1608 -32.1515 -32.1444 -32.1357 -32.1301 -32.1234 -32.1121 -32.0994
   -32.0893 -32.0869 -32.0776 -32.0607 -32.0557 -32.0501 -32.0392 -32.0322
   -32.0241 -32.0200 -32.0120 -32.0087 -32.0025 -32.0013 -31.9961 -31.9942
   -31.9796 -31.9751 -31.9712 -31.9649 -31.9608 -31.9529 -31.9467 -31.9407
   -31.9346 -31.9273 -31.9222 -31.9209 -31.9183 -31.9077 -31.8998 -31.8972
   -31.8912 -31.8673 -31.8497 -31.8441 -15.9431 -15.5530 -15.1490 -14.9042
   -14.6175 -14.4632 -14.2810 -14.1175 -13.9706 -13.8849 -13.7518 -13.6796
   -13.6129 -13.5274 -13.4405 -13.4231 -13.3558 -13.2958 -13.2544 -13.2415
   -13.2189 -13.1724 -13.1480 -13.1088 -13.0993 -13.0666 -13.0561 -13.0331
   -13.0105 -12.9751 -12.9362 -12.9220  -7.8803  -7.5483  -7.2925  -7.0782
    -6.9882  -6.8898  -6.7674  -6.6148  -6.3921  -6.1405  -6.0770  -6.0504
    -6.0137  -5.9195  -5.8279  -5.7763  -5.6226  -5.5740  -5.5391  -5.4659
    -5.4122  -5.3787  -5.3404  -5.2630  -5.2200  -5.1860  -5.1634  -5.1420
    -5.0749  -5.0490  -4.9759  -4.9239  -4.8837  -4.8381  -4.7607  -4.7265
    -4.6238  -4.6092  -4.5569  -4.5083  -4.4690  -4.4370  -4.3764  -4.3397
    -4.3016  -4.2560  -4.1975  -4.1559  -4.1417  -4.0803  -4.0159  -3.9668
    -3.9388  -3.8849  -3.8277  -3.7878  -3.7543  -3.6592  -3.6424  -3.6296
    -3.5895  -3.5430  -3.5068  -3.4764  -3.4276  -3.3924  -3.3640  -3.3153
    -3.2817  -3.2344  -3.1943  -3.1223  -3.0867  -3.0134  -2.9711  -2.9187
    -2.8968  -2.8303  -2.8121  -2.7625  -2.6930  -2.6437  -2.5778  -2.5470
    -2.5043  -2.4783  -2.4612  -2.4031  -2.3774  -2.3421  -2.3132  -2.2655
    -2.2506  -2.2432  -2.1807  -2.1554  -2.1336  -2.0777  -2.0389  -1.9821
    -1.9452  -1.9008  -1.8559  -1.8126  -1.7304  -1.6540  -1.5993  -1.5385
    -1.4570  -1.3296  -1.1981  -1.1754  -1.0992  -1.0343  -1.0225  -0.9801
    -0.9370  -0.8948  -0.8532  -0.7570  -0.7145  -0.6676  -0.6361  -0.5954
    -0.4984  -0.4760  -0.3957   0.7594   0.9038   1.0430   1.1864   1.2473
     1.3245   1.3393   1.3671   1.4064   1.4339   1.4641   1.4838   1.5410
     1.5648   1.5934   1.6057   1.6359   1.6528   1.6721   1.6819   1.6955
     1.7199   1.7432   1.7731   1.8342   1.8486   1.8784   1.8872   1.9202
     1.9348

          k = 0.3333-0.0000 0.0000 (287748 PWs)   bands (ev):

   -73.3691 -73.2932 -73.1494 -56.0018 -55.9968 -55.9932 -55.9768 -55.9522
   -55.9407 -55.9380 -55.9371 -55.9213 -55.9150 -55.8939 -55.8926 -55.8665
   -55.8561 -55.8407 -55.8260 -45.1543 -45.0924 -44.8426 -44.7526 -44.7418
   -44.6577 -44.6567 -44.6000 -44.5506 -32.2396 -32.2011 -32.1932 -32.1700
   -32.1613 -32.1570 -32.1455 -32.1383 -32.1325 -32.1204 -32.1099 -32.1002
   -32.0956 -32.0802 -32.0706 -32.0630 -32.0534 -32.0459 -32.0390 -32.0332
   -32.0249 -32.0221 -32.0147 -32.0086 -32.0029 -31.9987 -31.9976 -31.9916
   -31.9843 -31.9754 -31.9705 -31.9685 -31.9604 -31.9536 -31.9472 -31.9412
   -31.9339 -31.9290 -31.9224 -31.9218 -31.9141 -31.9055 -31.8993 -31.8967
   -31.8896 -31.8691 -31.8501 -31.8443 -15.9412 -15.5596 -15.1453 -14.8937
   -14.6297 -14.4667 -14.2422 -14.1530 -14.0015 -13.8400 -13.7935 -13.6617
   -13.6001 -13.4817 -13.4523 -13.4219 -13.3718 -13.3169 -13.2851 -13.2209
   -13.2044 -13.1774 -13.1527 -13.1222 -13.0951 -13.0624 -13.0377 -13.0211
   -13.0127 -12.9977 -12.9383 -12.9129  -7.8775  -7.5490  -7.2983  -7.0930
    -6.9800  -6.8842  -6.7710  -6.6214  -6.3866  -6.1478  -6.1013  -6.0526
    -5.9743  -5.8936  -5.7909  -5.7598  -5.6688  -5.5942  -5.5441  -5.4462
    -5.3994  -5.3660  -5.3011  -5.2889  -5.2344  -5.1840  -5.1671  -5.1391
    -5.0821  -5.0540  -4.9827  -4.9507  -4.8841  -4.8349  -4.7833  -4.7184
    -4.6467  -4.6134  -4.5553  -4.5065  -4.4764  -4.4405  -4.4184  -4.3710
    -4.2857  -4.2444  -4.2153  -4.1549  -4.1226  -4.0749  -4.0162  -3.9764
    -3.9371  -3.8768  -3.8214  -3.7452  -3.7018  -3.6847  -3.6724  -3.6137
    -3.5670  -3.5459  -3.5140  -3.4395  -3.4130  -3.3851  -3.3431  -3.2904
    -3.2763  -3.2262  -3.2143  -3.1212  -3.0527  -3.0193  -2.9807  -2.9745
    -2.9040  -2.8357  -2.8039  -2.7698  -2.7396  -2.6693  -2.5914  -2.5496
    -2.5119  -2.4750  -2.4384  -2.3922  -2.3793  -2.3244  -2.3069  -2.2701
    -2.2453  -2.1999  -2.1683  -2.1457  -2.1096  -2.0541  -2.0356  -1.9973
    -1.9746  -1.9320  -1.8656  -1.8159  -1.7824  -1.7202  -1.6580  -1.5057
    -1.4472  -1.2605  -1.2114  -1.1377  -1.1071  -1.0653  -1.0071  -0.9432
    -0.9255  -0.8653  -0.8583  -0.7775  -0.7269  -0.6822  -0.6315  -0.5810
    -0.5305  -0.4547  -0.4147   0.7869   0.9370   0.9941   1.1960   1.2635
     1.3119   1.3426   1.3707   1.4302   1.4479   1.4699   1.4970   1.5198
     1.5389   1.5693   1.6084   1.6180   1.6442   1.6650   1.6883   1.7084
     1.7221   1.7501   1.7648   1.8192   1.8455   1.8762   1.9106   1.9376
     1.9489

          k =-0.1667 0.4811 0.0000 (287831 PWs)   bands (ev):

   -73.3691 -73.2932 -73.1494 -56.0018 -55.9968 -55.9932 -55.9768 -55.9522
   -55.9407 -55.9379 -55.9371 -55.9213 -55.9150 -55.8939 -55.8926 -55.8665
   -55.8561 -55.8407 -55.8260 -45.1543 -45.0924 -44.8426 -44.7526 -44.7418
   -44.6577 -44.6567 -44.6000 -44.5506 -32.2380 -32.2020 -32.1925 -32.1705
   -32.1604 -32.1478 -32.1461 -32.1378 -32.1324 -32.1251 -32.1116 -32.0996
   -32.0912 -32.0897 -32.0801 -32.0631 -32.0581 -32.0509 -32.0401 -32.0332
   -32.0242 -32.0209 -32.0120 -32.0077 -32.0020 -32.0003 -31.9947 -31.9917
   -31.9761 -31.9718 -31.9705 -31.9632 -31.9600 -31.9511 -31.9440 -31.9370
   -31.9355 -31.9266 -31.9222 -31.9213 -31.9168 -31.9090 -31.9049 -31.8980
   -31.8917 -31.8684 -31.8508 -31.8455 -15.9423 -15.5532 -15.1476 -14.9110
   -14.6169 -14.4442 -14.3183 -14.0928 -13.9723 -13.9086 -13.7566 -13.6441
   -13.5579 -13.5200 -13.4549 -13.4209 -13.3759 -13.3109 -13.2747 -13.2467
   -13.2125 -13.1868 -13.1567 -13.1075 -13.0974 -13.0850 -13.0643 -13.0328
   -13.0095 -12.9526 -12.9334 -12.9067  -7.8767  -7.5429  -7.2903  -7.0764
    -6.9793  -6.8906  -6.7685  -6.6095  -6.3829  -6.1406  -6.0809  -6.0510
    -6.0190  -5.9080  -5.8603  -5.7742  -5.6260  -5.5493  -5.5445  -5.4850
    -5.4525  -5.3960  -5.3329  -5.2751  -5.2136  -5.1781  -5.1487  -5.1167
    -5.0889  -5.0317  -4.9983  -4.9462  -4.8826  -4.8284  -4.7607  -4.7327
    -4.6222  -4.5932  -4.5381  -4.5037  -4.4514  -4.4272  -4.3898  -4.3695
    -4.3005  -4.2657  -4.2393  -4.2101  -4.1675  -4.0992  -4.0318  -3.9942
    -3.9609  -3.9215  -3.8319  -3.7685  -3.7266  -3.6532  -3.6169  -3.6014
    -3.5648  -3.5308  -3.4819  -3.4255  -3.3778  -3.3498  -3.3075  -3.2810
    -3.2451  -3.1921  -3.1732  -3.1242  -3.0803  -3.0577  -3.0136  -2.9802
    -2.9176  -2.8620  -2.7587  -2.6480  -2.6175  -2.5926  -2.5459  -2.5290
    -2.4953  -2.4842  -2.4695  -2.4329  -2.3968  -2.3618  -2.3444  -2.3354
    -2.3036  -2.2538  -2.2283  -2.2041  -2.1681  -2.1281  -2.0565  -2.0009
    -1.9720  -1.9420  -1.8997  -1.8070  -1.6973  -1.6490  -1.5631  -1.5354
    -1.4342  -1.3138  -1.2228  -1.1488  -1.0900  -1.0506  -1.0145  -0.9830
    -0.9365  -0.8716  -0.8269  -0.7906  -0.7173  -0.6498  -0.5966  -0.5556
    -0.4569  -0.4259  -0.3567   0.7296   0.8806   1.0733   1.1392   1.1766
     1.2754   1.3344   1.3564   1.3879   1.4228   1.4694   1.5013   1.5233
     1.5465   1.5816   1.5935   1.6276   1.6420   1.6650   1.6839   1.7033
     1.7287   1.7366   1.7748   1.7950   1.8060   1.8319   1.8503   1.8837
     1.9009

          k =-0.3333 0.3849 0.0000 (287831 PWs)   bands (ev):

   -73.3691 -73.2932 -73.1494 -56.0018 -55.9968 -55.9932 -55.9768 -55.9522
   -55.9407 -55.9380 -55.9371 -55.9213 -55.9150 -55.8939 -55.8926 -55.8665
   -55.8561 -55.8407 -55.8260 -45.1543 -45.0924 -44.8426 -44.7526 -44.7418
   -44.6577 -44.6567 -44.6000 -44.5506 -32.2388 -32.1990 -32.1912 -32.1703
   -32.1635 -32.1510 -32.1448 -32.1377 -32.1345 -32.1273 -32.1120 -32.1004
   -32.0886 -32.0844 -32.0775 -32.0636 -32.0606 -32.0492 -32.0392 -32.0331
   -32.0246 -32.0224 -32.0098 -32.0077 -32.0035 -32.0000 -31.9951 -31.9919
   -31.9776 -31.9751 -31.9696 -31.9644 -31.9588 -31.9505 -31.9460 -31.9359
   -31.9345 -31.9259 -31.9232 -31.9220 -31.9176 -31.9064 -31.9029 -31.8976
   -31.8921 -31.8701 -31.8515 -31.8446 -15.9405 -15.5596 -15.1428 -14.9063
   -14.6242 -14.4486 -14.2849 -14.1008 -14.0406 -13.8852 -13.7328 -13.6353
   -13.5567 -13.5245 -13.4502 -13.3929 -13.3668 -13.3373 -13.2971 -13.2489
   -13.2139 -13.1934 -13.1419 -13.1308 -13.1035 -13.0666 -13.0573 -13.0146
   -13.0059 -12.9842 -12.9234 -12.9031  -7.8732  -7.5410  -7.2981  -7.0941
    -6.9740  -6.8852  -6.7704  -6.6209  -6.3740  -6.1465  -6.1029  -6.0473
    -5.9944  -5.9064  -5.8162  -5.7500  -5.6347  -5.5605  -5.5339  -5.4651
    -5.4264  -5.3747  -5.3280  -5.2690  -5.2427  -5.2073  -5.1704  -5.1667
    -5.1019  -5.0377  -4.9533  -4.9437  -4.9073  -4.8360  -4.7863  -4.7031
    -4.6196  -4.5931  -4.5478  -4.5065  -4.4848  -4.4465  -4.4164  -4.3764
    -4.3102  -4.2908  -4.2624  -4.1961  -4.1710  -4.0693  -4.0442  -3.9648
    -3.9429  -3.9045  -3.8026  -3.7693  -3.7052  -3.6288  -3.6134  -3.5554
    -3.5317  -3.4899  -3.4621  -3.4272  -3.4060  -3.3689  -3.3209  -3.2939
    -3.2698  -3.2187  -3.1623  -3.1300  -3.0729  -3.0490  -2.9987  -2.9514
    -2.9186  -2.8919  -2.7779  -2.6598  -2.6260  -2.5840  -2.5695  -2.5442
    -2.5186  -2.4944  -2.4815  -2.4164  -2.3905  -2.3697  -2.3462  -2.3034
    -2.2797  -2.2438  -2.2014  -2.1958  -2.1834  -2.1313  -2.0795  -2.0225
    -1.9884  -1.8992  -1.8652  -1.8154  -1.7564  -1.6677  -1.6112  -1.5510
    -1.4516  -1.2573  -1.1796  -1.1403  -1.1040  -1.0620  -1.0180  -0.9598
    -0.9174  -0.8854  -0.8448  -0.7428  -0.6971  -0.6791  -0.6031  -0.5439
    -0.4761  -0.4383  -0.3613   0.7604   0.9181   1.0207   1.1500   1.1783
     1.2666   1.3450   1.3513   1.3805   1.4508   1.4689   1.4973   1.5183
     1.5576   1.5703   1.5809   1.6066   1.6418   1.6702   1.6913   1.7184
     1.7276   1.7393   1.7786   1.7936   1.8070   1.8129   1.8599   1.8700
     1.8868

          k = 0.5000 0.0962 0.0000 (287831 PWs)   bands (ev):

   -73.3691 -73.2932 -73.1494 -56.0018 -55.9968 -55.9932 -55.9768 -55.9522
   -55.9407 -55.9380 -55.9371 -55.9213 -55.9150 -55.8939 -55.8926 -55.8665
   -55.8561 -55.8407 -55.8260 -45.1543 -45.0924 -44.8426 -44.7526 -44.7418
   -44.6577 -44.6567 -44.6000 -44.5506 -32.2387 -32.1992 -32.1872 -32.1712
   -32.1618 -32.1578 -32.1471 -32.1406 -32.1363 -32.1207 -32.1089 -32.1050
   -32.0927 -32.0791 -32.0702 -32.0686 -32.0540 -32.0478 -32.0402 -32.0327
   -32.0278 -32.0220 -32.0151 -32.0097 -32.0007 -31.9979 -31.9957 -31.9888
   -31.9799 -31.9758 -31.9694 -31.9643 -31.9605 -31.9513 -31.9471 -31.9408
   -31.9319 -31.9304 -31.9229 -31.9212 -31.9115 -31.9059 -31.9016 -31.8978
   -31.8891 -31.8721 -31.8505 -31.8463 -15.9394 -15.5631 -15.1423 -14.8952
   -14.6347 -14.4520 -14.2771 -14.1223 -14.0221 -13.8648 -13.7805 -13.6288
   -13.5154 -13.4936 -13.4630 -13.4146 -13.3841 -13.3498 -13.2961 -13.2562
   -13.1874 -13.1835 -13.1590 -13.1401 -13.0960 -13.0740 -13.0525 -13.0097
   -13.0055 -12.9859 -12.9252 -12.9008  -7.8725  -7.5440  -7.2987  -7.0986
    -6.9656  -6.8849  -6.7731  -6.6177  -6.3753  -6.1465  -6.1301  -6.0431
    -5.9562  -5.8906  -5.7818  -5.7527  -5.6882  -5.6098  -5.5574  -5.4453
    -5.3905  -5.3734  -5.2980  -5.2904  -5.2444  -5.2109  -5.1874  -5.1064
[...]
    -5.2693  -5.2172  -5.1690  -5.1343  -5.1144  -5.0496  -5.0180  -4.9530
    -4.8856  -4.8133  -4.7290  -4.6516  -4.5876  -4.5593  -4.5267  -4.4877
    -4.4641  -4.4327  -4.3983  -4.3696  -4.3273  -4.2382  -4.2271  -4.1915
    -4.1511  -4.1131  -4.0674  -3.9999  -3.9437  -3.8339  -3.7773  -3.7185
    -3.6875  -3.6201  -3.5837  -3.5620  -3.5338  -3.5104  -3.4387  -3.4067
    -3.3557  -3.2941  -3.2613  -3.1945  -3.1518  -3.1132  -3.0650  -3.0289
    -2.9917  -2.9382  -2.8961  -2.8485  -2.7837  -2.7222  -2.6634  -2.6018
    -2.5670  -2.5302  -2.5159  -2.4828  -2.4621  -2.4396  -2.3796  -2.3579
    -2.3153  -2.2885  -2.2564  -2.2051  -2.1567  -2.1303  -2.0712  -2.0543
    -2.0089  -1.9774  -1.9408  -1.8509  -1.7357  -1.6601  -1.5464  -1.4337
    -1.4024  -1.3692  -1.3164  -1.2865  -1.1862  -1.1359  -1.0746  -1.0279
    -0.9204  -0.8991  -0.7646  -0.7058  -0.0593   0.1663   0.2685   0.4513
     0.6221   0.8184   0.8509   0.9078   0.9510   0.9965   1.0697   1.0840
     1.1352   1.1642   1.2086   1.2524   1.3122   1.3385   1.3830   1.4093
     1.4584   1.4728   1.5072   1.5338   1.5389   1.5771   1.5998   1.6379
     1.6626   1.6871   1.7335   1.7456   1.7594   1.8014   1.8189   1.8448
     1.8713   1.8891   1.9157   1.9363   1.9759   2.0175   2.0400   2.0883
     2.1068

          k = 0.3333-0.0000 0.0000 (287748 PWs)   bands (ev):

   -70.1167 -70.0510 -69.3253 -56.1724 -56.1241 -56.0885 -56.0810 -56.0560
   -56.0482 -56.0385 -56.0288 -55.9946 -55.9880 -55.9689 -55.9597 -55.9475
   -55.9323 -55.8739 -55.8025 -42.2136 -42.1865 -41.7241 -41.6420 -41.2139
   -41.1170 -40.9624 -40.8599 -40.6672 -32.3595 -32.3344 -32.3063 -32.2922
   -32.2848 -32.2755 -32.2649 -32.2626 -32.2471 -32.2404 -32.2333 -32.2303
   -32.2256 -32.2145 -32.2070 -32.1847 -32.1737 -32.1659 -32.1573 -32.1473
   -32.1364 -32.1281 -32.1197 -32.1163 -32.1080 -32.1015 -32.0944 -32.0914
   -32.0849 -32.0802 -32.0659 -32.0540 -32.0447 -32.0406 -32.0266 -32.0207
   -32.0194 -32.0173 -32.0113 -32.0071 -31.9935 -31.9850 -31.9743 -31.9531
   -31.9335 -31.8829 -31.8761 -31.8549 -15.7198 -15.3135 -14.8996 -14.7255
   -14.4844 -14.3801 -14.1523 -14.1158 -13.9442 -13.8142 -13.7815 -13.6451
   -13.5934 -13.4750 -13.4516 -13.4192 -13.3717 -13.3161 -13.2859 -13.2192
   -13.2044 -13.1771 -13.1515 -13.1211 -13.0964 -13.0634 -13.0387 -13.0196
   -13.0141 -12.9989 -12.9391 -12.9137  -7.0650  -6.7209  -6.5354  -6.3558
    -6.3115  -6.1657  -6.0973  -5.9275  -5.8060  -5.7359  -5.6761  -5.6358
    -5.6200  -5.5691  -5.4831  -5.4551  -5.4467  -5.3884  -5.3463  -5.3177
    -5.2586  -5.2272  -5.1814  -5.1704  -5.1324  -5.0750  -5.0008  -4.9453
    -4.8838  -4.8001  -4.7504  -4.6832  -4.6423  -4.5952  -4.5199  -4.4814
    -4.4568  -4.4305  -4.4092  -4.3740  -4.2995  -4.2758  -4.2147  -4.1866
    -4.1549  -4.0983  -4.0794  -3.9971  -3.9210  -3.8630  -3.8058  -3.7498
    -3.6781  -3.6200  -3.5789  -3.5456  -3.5216  -3.4807  -3.4455  -3.3791
    -3.3328  -3.2648  -3.2410  -3.1931  -3.1739  -3.1237  -3.0551  -3.0017
    -2.9757  -2.9288  -2.9103  -2.8630  -2.8137  -2.7209  -2.6647  -2.6111
    -2.5980  -2.5649  -2.5338  -2.5081  -2.4725  -2.4364  -2.3653  -2.3266
    -2.2755  -2.2606  -2.2297  -2.1801  -2.1552  -2.1329  -2.0846  -2.0516
    -2.0161  -1.9765  -1.9313  -1.8759  -1.7573  -1.6150  -1.5494  -1.4809
    -1.4313  -1.3903  -1.3176  -1.2361  -1.1787  -1.1464  -1.1040  -1.0388
    -0.9066  -0.8602  -0.7594  -0.7134  -0.0581   0.1495   0.2765   0.4591
     0.6571   0.7906   0.8497   0.8909   0.9538   1.0020   1.0398   1.0828
     1.1361   1.1676   1.2034   1.2704   1.3327   1.3683   1.3989   1.4247
     1.4328   1.4768   1.4965   1.5113   1.5344   1.5787   1.5856   1.6127
     1.6548   1.6708   1.7003   1.7255   1.7609   1.7969   1.8374   1.8598
     1.8765   1.8917   1.9198   1.9485   1.9723   2.0006   2.0445   2.0550
     2.1121

          k =-0.1667 0.4811 0.0000 (287831 PWs)   bands (ev):

   -70.1167 -70.0510 -69.3253 -56.1724 -56.1241 -56.0885 -56.0810 -56.0560
   -56.0482 -56.0385 -56.0288 -55.9946 -55.9880 -55.9689 -55.9597 -55.9475
   -55.9323 -55.8739 -55.8025 -42.2136 -42.1865 -41.7241 -41.6420 -41.2139
   -41.1170 -40.9624 -40.8599 -40.6672 -32.3589 -32.3341 -32.3068 -32.2901
   -32.2817 -32.2746 -32.2635 -32.2553 -32.2509 -32.2417 -32.2375 -32.2345
   -32.2280 -32.2196 -32.2091 -32.1832 -32.1733 -32.1620 -32.1584 -32.1476
   -32.1398 -32.1312 -32.1230 -32.1166 -32.1080 -32.1015 -32.0963 -32.0908
   -32.0772 -32.0712 -32.0670 -32.0514 -32.0437 -32.0323 -32.0298 -32.0235
   -32.0203 -32.0174 -32.0108 -32.0045 -31.9935 -31.9857 -31.9812 -31.9532
   -31.9351 -31.8825 -31.8757 -31.8553 -15.7209 -15.3013 -14.9074 -14.7619
   -14.4577 -14.3520 -14.2428 -14.0098 -13.9477 -13.8706 -13.7443 -13.6370
   -13.5585 -13.5173 -13.4508 -13.4192 -13.3757 -13.3075 -13.2718 -13.2495
   -13.2115 -13.1849 -13.1552 -13.1067 -13.0982 -13.0861 -13.0640 -13.0322
   -13.0105 -12.9533 -12.9340 -12.9071  -7.0809  -6.6834  -6.4628  -6.3335
    -6.2279  -6.1261  -6.0516  -5.9420  -5.8622  -5.8033  -5.7779  -5.7424
    -5.7031  -5.6575  -5.5744  -5.4635  -5.4360  -5.3837  -5.3503  -5.3205
    -5.2518  -5.2037  -5.1611  -5.1367  -5.0924  -5.0112  -4.9949  -4.9374
    -4.8857  -4.8071  -4.7213  -4.6409  -4.6305  -4.5855  -4.5450  -4.5190
    -4.4847  -4.4559  -4.4242  -4.3606  -4.3437  -4.2371  -4.1974  -4.1646
    -4.1313  -4.0776  -4.0376  -3.9708  -3.8933  -3.8088  -3.7781  -3.6664
    -3.6128  -3.5902  -3.5731  -3.5542  -3.4909  -3.4827  -3.4458  -3.4117
    -3.3696  -3.3260  -3.2763  -3.2045  -3.1818  -3.1584  -3.0885  -3.0223
    -2.9885  -2.8930  -2.8011  -2.7781  -2.7427  -2.7074  -2.6395  -2.6273
    -2.6032  -2.5806  -2.5617  -2.5325  -2.4868  -2.4498  -2.4076  -2.4017
    -2.3641  -2.3249  -2.3050  -2.2822  -2.2106  -2.1778  -2.1067  -2.0664
    -1.9957  -1.9514  -1.9080  -1.8140  -1.7117  -1.6405  -1.5192  -1.4339
    -1.4078  -1.3727  -1.3205  -1.2417  -1.2023  -1.1195  -0.9973  -0.9717
    -0.9345  -0.8594  -0.7205  -0.6770  -0.0581   0.1583   0.2550   0.4580
     0.6098   0.7942   0.8322   0.8765   0.9440   0.9827   1.0447   1.0849
     1.1503   1.1657   1.2108   1.2382   1.2859   1.2983   1.3629   1.4236
     1.4483   1.4884   1.5133   1.5339   1.5564   1.5812   1.6033   1.6418
     1.6559   1.6607   1.6800   1.7032   1.7409   1.7568   1.7784   1.8011
     1.8644   1.8933   1.9018   1.9419   1.9844   2.0217   2.0431   2.0930
     2.1427

          k =-0.3333 0.3849 0.0000 (287831 PWs)   bands (ev):

   -70.1167 -70.0510 -69.3253 -56.1724 -56.1241 -56.0885 -56.0810 -56.0560
   -56.0482 -56.0385 -56.0288 -55.9946 -55.9880 -55.9689 -55.9597 -55.9475
   -55.9323 -55.8739 -55.8025 -42.2136 -42.1865 -41.7241 -41.6420 -41.2139
   -41.1170 -40.9624 -40.8599 -40.6672 -32.3592 -32.3328 -32.3051 -32.2914
   -32.2827 -32.2742 -32.2643 -32.2616 -32.2509 -32.2405 -32.2356 -32.2326
   -32.2279 -32.2173 -32.2089 -32.1856 -32.1710 -32.1663 -32.1568 -32.1471
   -32.1393 -32.1276 -32.1224 -32.1169 -32.1086 -32.1027 -32.0948 -32.0891
   -32.0801 -32.0729 -32.0655 -32.0521 -32.0440 -32.0329 -32.0299 -32.0231
   -32.0208 -32.0178 -32.0125 -32.0067 -31.9936 -31.9858 -31.9771 -31.9531
   -31.9338 -31.8829 -31.8761 -31.8554 -15.7182 -15.3138 -14.8940 -14.7512
   -14.4705 -14.3587 -14.2160 -14.0298 -13.9987 -13.8489 -13.7164 -13.6316
   -13.5573 -13.5204 -13.4484 -13.3918 -13.3625 -13.3368 -13.2945 -13.2476
   -13.2131 -13.1916 -13.1395 -13.1312 -13.1058 -13.0674 -13.0577 -13.0147
   -13.0061 -12.9847 -12.9242 -12.9036  -7.0522  -6.6864  -6.5106  -6.3290
    -6.2726  -6.1888  -6.1058  -5.9492  -5.8435  -5.7427  -5.7156  -5.6858
    -5.6286  -5.6092  -5.5511  -5.4835  -5.4511  -5.4008  -5.3585  -5.2979
    -5.2658  -5.2271  -5.1661  -5.1137  -5.0874  -5.0376  -5.0000  -4.9312
    -4.8747  -4.7977  -4.7316  -4.6816  -4.6249  -4.5831  -4.5589  -4.5217
    -4.4926  -4.4585  -4.4227  -4.3948  -4.3600  -4.2759  -4.2292  -4.2117
    -4.1359  -4.0738  -4.0283  -3.9588  -3.9131  -3.7867  -3.7162  -3.6693
    -3.6495  -3.6146  -3.5607  -3.5469  -3.5005  -3.4320  -3.3953  -3.3751
    -3.3500  -3.3185  -3.2838  -3.2425  -3.1939  -3.1190  -3.0756  -3.0536
    -2.9743  -2.8969  -2.8324  -2.7594  -2.7530  -2.7073  -2.6398  -2.6311
    -2.5991  -2.5812  -2.5596  -2.5516  -2.5111  -2.4893  -2.4247  -2.3909
    -2.3346  -2.3077  -2.2801  -2.2265  -2.1961  -2.1695  -2.1021  -2.0458
    -2.0287  -1.9842  -1.9037  -1.8020  -1.7522  -1.6300  -1.5447  -1.4582
    -1.3979  -1.3439  -1.3014  -1.2630  -1.2108  -1.1377  -1.0447  -0.9854
    -0.8570  -0.8408  -0.7330  -0.6735  -0.0581   0.1443   0.2629   0.4627
     0.6397   0.7975   0.8229   0.8881   0.9147   0.9808   1.0376   1.0808
     1.1193   1.1622   1.1931   1.2586   1.3185   1.3438   1.3900   1.3959
     1.4323   1.4830   1.5189   1.5275   1.5538   1.5831   1.5964   1.6219
     1.6382   1.6758   1.6807   1.7052   1.7154   1.7601   1.7810   1.8114
     1.8425   1.8657   1.9029   1.9237   1.9739   2.0280   2.0506   2.1034
     2.1512

          k = 0.5000 0.0962 0.0000 (287831 PWs)   bands (ev):

   -70.1167 -70.0510 -69.3253 -56.1724 -56.1241 -56.0885 -56.0810 -56.0560
   -56.0482 -56.0385 -56.0288 -55.9946 -55.9880 -55.9689 -55.9597 -55.9475
   -55.9323 -55.8739 -55.8025 -42.2136 -42.1865 -41.7241 -41.6420 -41.2139
   -41.1170 -40.9624 -40.8599 -40.6672 -32.3587 -32.3330 -32.3029 -32.2945
   -32.2827 -32.2752 -32.2666 -32.2600 -32.2489 -32.2423 -32.2379 -32.2302
   -32.2252 -32.2163 -32.2094 -32.1889 -32.1734 -32.1647 -32.1584 -32.1471
   -32.1337 -32.1234 -32.1203 -32.1148 -32.1073 -32.1040 -32.0971 -32.0898
   -32.0836 -32.0732 -32.0655 -32.0542 -32.0462 -32.0407 -32.0294 -32.0228
   -32.0192 -32.0177 -32.0094 -32.0058 -31.9935 -31.9861 -31.9731 -31.9531
   -31.9336 -31.8837 -31.8767 -31.8551 -15.7168 -15.3206 -14.8908 -14.7299
   -14.4930 -14.3679 -14.1917 -14.0877 -13.9461 -13.8335 -13.7681 -13.6214
   -13.5140 -13.4921 -13.4627 -13.4113 -13.3816 -13.3478 -13.2942 -13.2548
   -13.1866 -13.1804 -13.1602 -13.1397 -13.0965 -13.0747 -13.0534 -13.0104
   -13.0046 -12.9872 -12.9260 -12.9015  -7.0368  -6.6919  -6.5597  -6.3235
    -6.2675  -6.1920  -6.1398  -5.8894  -5.8129  -5.7440  -5.7017  -5.6573
    -5.6302  -5.5864  -5.5253  -5.4892  -5.4744  -5.4164  -5.3796  -5.3027
    -5.2595  -5.2353  -5.1884  -5.1378  -5.0824  -5.0235  -5.0038  -4.9382
    -4.8745  -4.8176  -4.7324  -4.7091  -4.6581  -4.6018  -4.5382  -4.5023
    -4.4641  -4.4405  -4.4205  -4.4143  -4.3521  -4.2595  -4.2303  -4.2031
    -4.1503  -4.0721  -4.0050  -3.9510  -3.8827  -3.8045  -3.7654  -3.7379
    -3.6411  -3.5962  -3.5680  -3.5163  -3.4711  -3.4560  -3.4263  -3.3531
    -3.3382  -3.3136  -3.2609  -3.2060  -3.1809  -3.1418  -3.0758  -3.0196
    -2.9601  -2.9063  -2.8988  -2.7920  -2.7624  -2.6913  -2.6688  -2.6237
    -2.5886  -2.5848  -2.5422  -2.5217  -2.4903  -2.4770  -2.4306  -2.4018
    -2.3536  -2.3318  -2.2919  -2.2625  -2.1988  -2.1358  -2.1016  -2.0379
    -2.0065  -1.9729  -1.8712  -1.8160  -1.7305  -1.6331  -1.5784  -1.4665
    -1.4174  -1.3473  -1.3065  -1.2665  -1.1954  -1.0906  -1.0620  -1.0095
    -0.8476  -0.8178  -0.7532  -0.6673  -0.0562   0.1318   0.2699   0.4661
     0.6558   0.7629   0.8375   0.8791   0.9378   0.9506   1.0453   1.0701
     1.1356   1.1456   1.2118   1.2526   1.3220   1.3490   1.3911   1.4206
     1.4402   1.4711   1.4860   1.5160   1.5518   1.5808   1.5867   1.5974
     1.6290   1.6597   1.6825   1.7078   1.7330   1.7464   1.7906   1.8158
     1.8500   1.9044   1.9124   1.9230   1.9612   2.0125   2.0301   2.0867
     2.1365

          k =-0.3333-0.3849 0.0000 (287831 PWs)   bands (ev):

   -70.1167 -70.0510 -69.3253 -56.1724 -56.1241 -56.0885 -56.0810 -56.0560
   -56.0482 -56.0385 -56.0288 -55.9946 -55.9880 -55.9689 -55.9597 -55.9475
   -55.9323 -55.8739 -55.8025 -42.2136 -42.1865 -41.7241 -41.6420 -41.2139
   -41.1170 -40.9624 -40.8599 -40.6672 -32.3585 -32.3337 -32.3040 -32.2936
   -32.2827 -32.2760 -32.2618 -32.2597 -32.2488 -32.2429 -32.2387 -32.2318
   -32.2273 -32.2160 -32.2095 -32.1872 -32.1704 -32.1675 -32.1588 -32.1471
   -32.1343 -32.1243 -32.1212 -32.1146 -32.1088 -32.1024 -32.0976 -32.0886
   -32.0831 -32.0726 -32.0661 -32.0538 -32.0462 -32.0410 -32.0296 -32.0222
   -32.0194 -32.0174 -32.0090 -32.0040 -31.9934 -31.9867 -31.9746 -31.9531
   -31.9342 -31.8834 -31.8765 -31.8551 -15.7181 -15.3146 -14.8975 -14.7352
   -14.4914 -14.3529 -14.2247 -14.0513 -13.9447 -13.8475 -13.7459 -13.6258
   -13.5638 -13.5111 -13.4386 -13.4065 -13.3580 -13.3343 -13.3046 -13.2373
   -13.2124 -13.1952 -13.1457 -13.1250 -13.1075 -13.0713 -13.0540 -13.0188
   -13.0037 -12.9804 -12.9250 -12.9043  -7.0537  -6.6885  -6.5317  -6.3243
    -6.2662  -6.1627  -6.1204  -5.8576  -5.8084  -5.7792  -5.7280  -5.6858
    -5.6541  -5.6168  -5.5573  -5.4974  -5.4639  -5.4250  -5.3713  -5.3041
    -5.2675  -5.2273  -5.1597  -5.1461  -5.0927  -5.0195  -4.9807  -4.9483
    -4.8562  -4.8025  -4.7669  -4.6694  -4.6572  -4.5992  -4.5307  -4.4839
    -4.4730  -4.4613  -4.4225  -4.3854  -4.3381  -4.2777  -4.2309  -4.1907
    -4.1513  -4.0473  -4.0082  -3.9623  -3.8620  -3.8413  -3.7175  -3.7036
    -3.6492  -3.6150  -3.5595  -3.5472  -3.5166  -3.4530  -3.4029  -3.3718
    -3.3513  -3.3309  -3.2880  -3.2144  -3.1703  -3.1222  -3.0867  -3.0154
    -2.9692  -2.8707  -2.8460  -2.7916  -2.7386  -2.7171  -2.6863  -2.6287
    -2.6121  -2.5772  -2.5630  -2.5343  -2.4993  -2.4961  -2.4355  -2.4089
    -2.3379  -2.3138  -2.2937  -2.2358  -2.1969  -2.1584  -2.0576  -2.0451
    -2.0269  -1.9755  -1.8797  -1.8041  -1.6982  -1.6621  -1.5993  -1.4589
    -1.4101  -1.3384  -1.2780  -1.2704  -1.2006  -1.1165  -1.0473  -0.9911
    -0.8648  -0.8334  -0.7420  -0.6714  -0.0575   0.1405   0.2639   0.4648
     0.6322   0.7714   0.8339   0.9113   0.9193   0.9541   1.0602   1.0721
     1.1218   1.1525   1.2004   1.2581   1.3132   1.3608   1.3758   1.4105
     1.4300   1.4794   1.5068   1.5197   1.5529   1.5855   1.5949   1.6103
     1.6199   1.6641   1.6991   1.7044   1.7203   1.7467   1.7759   1.8041
     1.8511   1.8900   1.9104   1.9331   1.9730   2.0106   2.0456   2.1168
     2.1552

          k = 0.5000-0.0962 0.0000 (287831 PWs)   bands (ev):

   -70.1167 -70.0510 -69.3253 -56.1724 -56.1241 -56.0885 -56.0810 -56.0560
   -56.0482 -56.0385 -56.0288 -55.9946 -55.9880 -55.9689 -55.9597 -55.9475
   -55.9323 -55.8739 -55.8025 -42.2136 -42.1865 -41.7241 -41.6420 -41.2139
   -41.1170 -40.9624 -40.8599 -40.6672 -32.3592 -32.3324 -32.3036 -32.2932
   -32.2821 -32.2742 -32.2683 -32.2612 -32.2502 -32.2424 -32.2338 -32.2302
   -32.2277 -32.2161 -32.2091 -32.1879 -32.1741 -32.1642 -32.1568 -32.1470
   -32.1371 -32.1264 -32.1209 -32.1148 -32.1094 -32.1028 -32.0949 -32.0902
   -32.0822 -32.0735 -32.0650 -32.0523 -32.0446 -32.0374 -32.0288 -32.0220
   -32.0207 -32.0180 -32.0127 -32.0067 -31.9936 -31.9858 -31.9745 -31.9531
   -31.9333 -31.8833 -31.8764 -31.8553 -15.7169 -15.3201 -14.8883 -14.7413
   -14.4806 -14.3662 -14.1899 -14.0828 -13.9724 -13.8372 -13.7456 -13.6218
   -13.5174 -13.4996 -13.4655 -13.4023 -13.3821 -13.3426 -13.2915 -13.2604
   -13.1971 -13.1790 -13.1539 -13.1350 -13.1005 -13.0701 -13.0553 -13.0096
   -13.0041 -12.9914 -12.9253 -12.9012  -7.0357  -6.6903  -6.5481  -6.3272
    -6.2756  -6.1997  -6.1296  -5.9479  -5.8266  -5.7209  -5.6847  -5.6665
    -5.6416  -5.5854  -5.5029  -5.4857  -5.4658  -5.3956  -5.3691  -5.2965
    -5.2543  -5.2344  -5.1776  -5.1326  -5.0965  -5.0503  -4.9913  -4.9292
    -4.8869  -4.7897  -4.7417  -4.6826  -4.6552  -4.5953  -4.5634  -4.5102
    -4.4896  -4.4445  -4.4320  -4.4008  -4.3537  -4.2921  -4.2201  -4.2144
    -4.1428  -4.0610  -4.0188  -3.9722  -3.9048  -3.7938  -3.7430  -3.7069
    -3.6551  -3.5906  -3.5659  -3.4971  -3.4873  -3.4472  -3.4217  -3.3677
    -3.3278  -3.3041  -3.2686  -3.2245  -3.1619  -3.1501  -3.0831  -3.0180
    -2.9871  -2.9100  -2.8728  -2.7916  -2.7511  -2.6837  -2.6610  -2.6204
    -2.6012  -2.5931  -2.5441  -2.5260  -2.4827  -2.4748  -2.4226  -2.4013
    -2.3505  -2.3219  -2.2823  -2.2419  -2.1904  -2.1525  -2.1190  -2.0593
    -2.0061  -1.9751  -1.8899  -1.8185  -1.7572  -1.6114  -1.5298  -1.4722
    -1.4058  -1.3819  -1.3100  -1.2627  -1.1932  -1.1049  -1.0625  -1.0067
    -0.8513  -0.8128  -0.7484  -0.6675  -0.0570   0.1352   0.2680   0.4656
     0.6593   0.7810   0.8299   0.8684   0.9284   0.9751   1.0289   1.0656
     1.1225   1.1721   1.2045   1.2566   1.3297   1.3447   1.3929   1.4059
     1.4385   1.4560   1.5094   1.5176   1.5556   1.5865   1.6018   1.6135
     1.6375   1.6463   1.6728   1.7042   1.7235   1.7601   1.7953   1.8198
     1.8382   1.8768   1.9018   1.9249   1.9735   2.0177   2.0499   2.0915
     2.1260

     the Fermi energy is    -0.8964 ev

!    total energy              =  -12152.95183379 Ry

     total all-electron energy =   -284072.426645 Ry
     estimated scf accuracy    <       0.00000009 Ry
     smearing contrib. (-TS)   =      -0.00756754 Ry
     internal energy E=F+TS    =  -12152.94426626 Ry

     The total energy is F=E-TS. E is the sum of the following terms:
     one-electron contribution =  -20651.17480133 Ry
     hartree contribution      =   10360.76080226 Ry
     xc contribution           =    -572.39076135 Ry
     ewald contribution        =    7854.87654722 Ry
     Hubbard energy            =       0.50717545 Ry
     one-center paw contrib.   =   -9145.52322852 Ry

     total magnetization       =     8.00 Bohr mag/cell
     absolute magnetization    =    16.31 Bohr mag/cell

     convergence has been achieved in  19 iterations

     Writing output data file ./tmp/adatom.save/
 
     init_run     :    136.36s CPU    144.94s WALL (       1 calls)
     electrons    :   4193.10s CPU   4221.05s WALL (       1 calls)

     Called by init_run:
     wfcinit      :    102.13s CPU    103.33s WALL (       1 calls)
     potinit      :     10.41s CPU     11.87s WALL (       1 calls)
     hinit0       :     15.97s CPU     20.30s WALL (       1 calls)

     Called by electrons:
     c_bands      :   3447.98s CPU   3460.81s WALL (      19 calls)
     sum_band     :    580.69s CPU    588.56s WALL (      19 calls)
     v_of_rho     :     27.30s CPU     28.11s WALL (      20 calls)
     newd         :     32.99s CPU     39.50s WALL (      20 calls)
     PAW_pot      :     14.90s CPU     15.60s WALL (      20 calls)
     mix_rho      :     90.75s CPU     91.49s WALL (      19 calls)

     Called by c_bands:
     init_us_2    :     28.38s CPU     28.51s WALL (    1600 calls)
     cegterg      :   3349.04s CPU   3361.09s WALL (     760 calls)

     Called by *egterg:
     cdiaghg      :    270.82s CPU    271.93s WALL (    4227 calls)
     h_psi        :   1951.50s CPU   1960.85s WALL (    4267 calls)
     s_psi        :    189.04s CPU    189.28s WALL (    4307 calls)
     g_psi        :      6.09s CPU      6.11s WALL (    3467 calls)

     Called by h_psi:
     h_psi:calbec :    209.07s CPU    209.47s WALL (    4267 calls)
     vloc_psi     :   1481.70s CPU   1489.84s WALL (    4267 calls)
     add_vuspsi   :    185.61s CPU    186.01s WALL (    4267 calls)
     vhpsi        :     58.99s CPU     59.14s WALL (    4267 calls)

     General routines
     calbec       :    327.65s CPU    328.27s WALL (   10094 calls)
     fft          :     18.34s CPU     21.49s WALL (     494 calls)
     ffts         :     51.45s CPU     51.71s WALL (   14530 calls)
     fftw         :   1655.25s CPU   1663.86s WALL ( 1141642 calls)
     interpolate  :      1.57s CPU      1.61s WALL (      40 calls)
     davcio       :      0.01s CPU      0.08s WALL (      40 calls)
 
     Parallel routines

     Hubbard U routines
     new_ns       :     12.21s CPU     12.70s WALL (      19 calls)
     vhpsi        :     58.99s CPU     59.14s WALL (    4267 calls)
 
     PWSCF        :      1h12m CPU      1h13m WALL

 
   This run was terminated on:  20: 4:53  20Jul2023            

=------------------------------------------------------------------------------=
   JOB DONE.
=------------------------------------------------------------------------------=
