 
             +---------------------------------------------------+
             |                                                   |
             |                   WANNIER90                       |
             |                                                   |
             +---------------------------------------------------+
             |                                                   |
             |        Welcome to the Maximally-Localized         |
             |        Generalized Wannier Functions code         |
             |            http://www.wannier.org                 |
             |                                                   |
             |                                                   |
             |  Wannier90 Developer Group:                       |
             |    Giovanni Pizzi    (EPFL)                       |
             |    Valerio Vitale    (Cambridge)                  |
             |    David Vanderbilt  (Rutgers University)         |
             |    Nicola Marzari    (EPFL)                       |
             |    Ivo Souza         (Universidad del Pais Vasco) |
             |    Arash A. Mostofi  (Imperial College London)    |
             |    Jonathan R. Yates (University of Oxford)       |
             |                                                   |
             |  For the full list of Wannier90 3.x authors,      |
             |  please check the code documentation and the      |
             |  README on the GitHub page of the code            |
             |                                                   |
             |                                                   |
             |  Please cite                                      |
             |                                                   |
             |  [ref] "Wannier90 as a community code:            |
             |        new features and applications",            |
             |        G. Pizzi et al., J. Phys. Cond. Matt. 32,  |
             |        165902 (2020).                             |
             |        http://doi.org/10.1088/1361-648X/ab51ff    |
             |                                                   |
             |  in any publications arising from the use of      |
             |  this code. For the method please cite            |
             |                                                   |
             |  [ref] "Maximally Localized Generalised Wannier   |
             |         Functions for Composite Energy Bands"     |
             |         N. Marzari and D. Vanderbilt              |
             |         Phys. Rev. B 56 12847 (1997)              |
             |                                                   |
             |  [ref] "Maximally Localized Wannier Functions     |
             |         for Entangled Energy Bands"               |
             |         I. Souza, N. Marzari and D. Vanderbilt    |
             |         Phys. Rev. B 65 035109 (2001)             |
             |                                                   |
             |                                                   |
             | Copyright (c) 1996-2020                           |
             |        The Wannier90 Developer Group and          |
             |        individual contributors                    |
             |                                                   |
             |      Release: 3.1.0        5th March    2020      |
             |                                                   |
             | This program is free software; you can            |
             | redistribute it and/or modify it under the terms  |
             | of the GNU General Public License as published by |
             | the Free Software Foundation; either version 2 of |
             | the License, or (at your option) any later version|
             |                                                   |
             | This program is distributed in the hope that it   |
             | will be useful, but WITHOUT ANY WARRANTY; without |
             | even the implied warranty of MERCHANTABILITY or   |
             | FITNESS FOR A PARTICULAR PURPOSE. See the GNU     |
             | General Public License for more details.          |
             |                                                   |
             | You should have received a copy of the GNU General|
             | Public License along with this program; if not,   |
             | write to the Free Software Foundation, Inc.,      |
             | 675 Mass Ave, Cambridge, MA 02139, USA.           |
             |                                                   |
             +---------------------------------------------------+
             |    Execution started on 20Jul2023 at 20:28:08     |
             +---------------------------------------------------+
 
 ******************************************************************************
 * -> Using CODATA 2006 constant values                                       *
 *    (http://physics.nist.gov/cuu/Constants/index.html)                      *
 * -> Using Bohr value from CODATA                                            *
 ******************************************************************************
 

 Running in parallel on  80 CPUs

 
                                    ------
                                    SYSTEM
                                    ------
 
                              Lattice Vectors (Ang)
                    a_1    13.784171   0.000000   0.000000
                    a_2    -6.892085  11.937442   0.000000
                    a_3     0.000000   0.000000  23.631430
 
                   Unit Cell Volume:    3888.49848  (Ang^3)
 
                        Reciprocal-Space Vectors (Ang^-1)
                    b_1     0.455826   0.263171   0.000000
                    b_2     0.000000   0.526343   0.000000
                    b_3     0.000000   0.000000   0.265883
  
 *----------------------------------------------------------------------------*
 |   Site       Fractional Coordinate          Cartesian Coordinate (Ang)     |
 +----------------------------------------------------------------------------+
 | Cr   1   0.33333   0.66667   0.16685   |   -0.00000   7.95829   3.94299    |
 | Cr   2   0.58000   0.66667   0.16685   |    3.40010   7.95829   3.94299    |
 | Cr   3   0.85000   0.66667   0.16685   |    7.12182   7.95829   3.94299    |
 | Nb   1   0.00000   0.00000   0.07170   |    0.00000   0.00000   1.69430    |
 | Nb   2   0.25189   0.00024   0.07201   |    3.47040   0.00287   1.70173    |
 | Nb   3   0.50228   0.00457   0.07084   |    6.89209   0.05454   1.67414    |
 | Nb   4   0.74835   0.00024   0.07201   |   10.31377   0.00287   1.70173    |
 | Nb   5   0.74850   0.25150   0.06828   |    8.58404   3.00230   1.61367    |
 | Nb   6   0.74850   0.49699   0.06828   |    6.89209   5.93284   1.61367    |
 | Nb   7   0.74835   0.74811   0.07201   |    5.15937   8.93055   1.70173    |
 | Nb   8   0.50032   0.75016   0.07859   |    1.72635   8.95500   1.85709    |
 | Nb   9   0.24984   0.75016   0.07859   |   -1.72635   8.95500   1.85709    |
 | Nb  10  -0.00024   0.74811   0.07201   |   -5.15937   8.93055   1.70173    |
 | Nb  11   0.50301   0.25150   0.06828   |    5.20014   3.00230   1.61367    |
 | Nb  12   0.50228   0.49772   0.07084   |    3.49327   5.94145   1.67414    |
 | Nb  13   0.24984   0.49968   0.07859   |   -0.00000   5.96488   1.85709    |
 | Nb  14   0.25189   0.25165   0.07201   |    1.73769   3.00402   1.70173    |
 | Nb  15  -0.00024   0.25165   0.07201   |   -1.73769   3.00402   1.70173    |
 | Nb  16  -0.00457   0.49772   0.07084   |   -3.49327   5.94145   1.67414    |
 | Se   1   0.16721   0.08361   0.00063   |    1.72866   0.99804   0.01486    |
 | Se   2   0.16690   0.08345   0.14290   |    1.72538   0.99615   3.37693    |
 | Se   3   0.41544   0.08143  -0.00156   |    5.16530   0.97207  -0.03681    |
 | Se   4   0.41911   0.08928   0.14188   |    5.16174   1.06572   3.35289    |
 | Se   5   0.66599   0.08143  -0.00156   |    8.61887   0.97207  -0.03681    |
 | Se   6   0.67017   0.08928   0.14188   |    8.62243   1.06572   3.35289    |
 | Se   7   0.91639   0.08361   0.00063   |   12.05551   0.99804   0.01486    |
 | Se   8   0.91655   0.08345   0.14290   |   12.05879   0.99615   3.37693    |
 | Se   9   0.91857   0.33401  -0.00156   |   10.35968   3.98724  -0.03681    |
 | Se  10   0.91072   0.32983   0.14188   |   10.28036   3.93734   3.35289    |
 | Se  11   0.91857   0.58456  -0.00156   |    8.63289   6.97813  -0.03681    |
 | Se  12   0.91072   0.58089   0.14188   |    8.55002   6.93438   3.35289    |
 | Se  13   0.91639   0.83279   0.00063   |    6.89209   9.94136   0.01486    |
 | Se  14   0.91655   0.83310   0.14290   |    6.89209   9.94514   3.37693    |
 | Se  15   0.66220   0.83110   0.00298   |    3.39989   9.92122   0.07043    |
 | Se  16   0.67172   0.83586   0.14547   |    3.49824   9.97800   3.43758    |
 | Se  17   0.41489   0.82979   0.00560   |    0.00000   9.90552   0.13226    |
 | Se  18   0.42825   0.85651   0.14992   |    0.00000  10.22450   3.54287    |
 | Se  19   0.16890   0.83110   0.00298   |   -3.39989   9.92122   0.07043    |
 | Se  20   0.16414   0.83586   0.14547   |   -3.49824   9.97800   3.43758    |
 | Se  21   0.66667   0.33333  -0.00432   |    6.89209   3.97915  -0.10210    |
 | Se  22   0.66667   0.33333   0.14105   |    6.89209   3.97915   3.33317    |
 | Se  23   0.66599   0.58456  -0.00156   |    5.15128   6.97813  -0.03681    |
 | Se  24   0.67017   0.58089   0.14188   |    5.23415   6.93438   3.35289    |
 | Se  25   0.41489   0.58511   0.00560   |    1.68635   6.98468   0.13226    |
 | Se  26   0.42825   0.57175   0.14992   |    1.96259   6.82519   3.54287    |
 | Se  27   0.41544   0.33401  -0.00156   |    3.42449   3.98724  -0.03681    |
 | Se  28   0.41911   0.32983   0.14188   |    3.50381   3.93734   3.35289    |
 | Se  29   0.16890   0.33780   0.00298   |    0.00000   4.03244   0.07043    |
 | Se  30   0.16414   0.32828   0.14547   |    0.00000   3.91888   3.43758    |
 | Se  31   0.17021   0.58511   0.00560   |   -1.68635   6.98468   0.13226    |
 | Se  32   0.14349   0.57175   0.14992   |   -1.96259   6.82519   3.54287    |
 *----------------------------------------------------------------------------*
                                -----------
                                PROJECTIONS
                                -----------
  
 +----------------------------------------------------------------------------+
 |     Frac. Coord.   l mr  r        z-axis               x-axis          Z/a |
 +----------------------------------------------------------------------------+
 |  0.33  0.67  0.17  2  1  1  0.000  0.000  1.000  1.000  0.000  0.000   1.0 |
 |  0.33  0.67  0.17  2  2  1  0.000  0.000  1.000  1.000  0.000  0.000   1.0 |
 |  0.33  0.67  0.17  2  3  1  0.000  0.000  1.000  1.000  0.000  0.000   1.0 |
 |  0.33  0.67  0.17  2  4  1  0.000  0.000  1.000  1.000  0.000  0.000   1.0 |
 |  0.33  0.67  0.17  2  5  1  0.000  0.000  1.000  1.000  0.000  0.000   1.0 |
 |  0.58  0.67  0.17  2  1  1  0.000  0.000  1.000  1.000  0.000  0.000   1.0 |
 |  0.58  0.67  0.17  2  2  1  0.000  0.000  1.000  1.000  0.000  0.000   1.0 |
 |  0.58  0.67  0.17  2  3  1  0.000  0.000  1.000  1.000  0.000  0.000   1.0 |
 |  0.58  0.67  0.17  2  4  1  0.000  0.000  1.000  1.000  0.000  0.000   1.0 |
 |  0.58  0.67  0.17  2  5  1  0.000  0.000  1.000  1.000  0.000  0.000   1.0 |
 |  0.85  0.67  0.17  2  1  1  0.000  0.000  1.000  1.000  0.000  0.000   1.0 |
 |  0.85  0.67  0.17  2  2  1  0.000  0.000  1.000  1.000  0.000  0.000   1.0 |
 |  0.85  0.67  0.17  2  3  1  0.000  0.000  1.000  1.000  0.000  0.000   1.0 |
 |  0.85  0.67  0.17  2  4  1  0.000  0.000  1.000  1.000  0.000  0.000   1.0 |
 |  0.85  0.67  0.17  2  5  1  0.000  0.000  1.000  1.000  0.000  0.000   1.0 |
 |  0.00  0.00  0.07  2  1  1  0.000  0.000  1.000  1.000  0.000  0.000   1.0 |
 |  0.00  0.00  0.07  2  2  1  0.000  0.000  1.000  1.000  0.000  0.000   1.0 |
 |  0.00  0.00  0.07  2  3  1  0.000  0.000  1.000  1.000  0.000  0.000   1.0 |
 |  0.00  0.00  0.07  2  4  1  0.000  0.000  1.000  1.000  0.000  0.000   1.0 |
 |  0.00  0.00  0.07  2  5  1  0.000  0.000  1.000  1.000  0.000  0.000   1.0 |
 |  0.25  0.00  0.07  2  1  1  0.000  0.000  1.000  1.000  0.000  0.000   1.0 |
 |  0.25  0.00  0.07  2  2  1  0.000  0.000  1.000  1.000  0.000  0.000   1.0 |
 |  0.25  0.00  0.07  2  3  1  0.000  0.000  1.000  1.000  0.000  0.000   1.0 |
 |  0.25  0.00  0.07  2  4  1  0.000  0.000  1.000  1.000  0.000  0.000   1.0 |
 |  0.25  0.00  0.07  2  5  1  0.000  0.000  1.000  1.000  0.000  0.000   1.0 |
 |  0.50  0.00  0.07  2  1  1  0.000  0.000  1.000  1.000  0.000  0.000   1.0 |
 |  0.50  0.00  0.07  2  2  1  0.000  0.000  1.000  1.000  0.000  0.000   1.0 |
 |  0.50  0.00  0.07  2  3  1  0.000  0.000  1.000  1.000  0.000  0.000   1.0 |
 |  0.50  0.00  0.07  2  4  1  0.000  0.000  1.000  1.000  0.000  0.000   1.0 |
 |  0.50  0.00  0.07  2  5  1  0.000  0.000  1.000  1.000  0.000  0.000   1.0 |
 |  0.75  0.00  0.07  2  1  1  0.000  0.000  1.000  1.000  0.000  0.000   1.0 |
 |  0.75  0.00  0.07  2  2  1  0.000  0.000  1.000  1.000  0.000  0.000   1.0 |
 |  0.75  0.00  0.07  2  3  1  0.000  0.000  1.000  1.000  0.000  0.000   1.0 |
 |  0.75  0.00  0.07  2  4  1  0.000  0.000  1.000  1.000  0.000  0.000   1.0 |
 |  0.75  0.00  0.07  2  5  1  0.000  0.000  1.000  1.000  0.000  0.000   1.0 |
 |  0.75  0.25  0.07  2  1  1  0.000  0.000  1.000  1.000  0.000  0.000   1.0 |
 |  0.75  0.25  0.07  2  2  1  0.000  0.000  1.000  1.000  0.000  0.000   1.0 |
 |  0.75  0.25  0.07  2  3  1  0.000  0.000  1.000  1.000  0.000  0.000   1.0 |
 |  0.75  0.25  0.07  2  4  1  0.000  0.000  1.000  1.000  0.000  0.000   1.0 |
 |  0.75  0.25  0.07  2  5  1  0.000  0.000  1.000  1.000  0.000  0.000   1.0 |
 |  0.75  0.50  0.07  2  1  1  0.000  0.000  1.000  1.000  0.000  0.000   1.0 |
 |  0.75  0.50  0.07  2  2  1  0.000  0.000  1.000  1.000  0.000  0.000   1.0 |
 |  0.75  0.50  0.07  2  3  1  0.000  0.000  1.000  1.000  0.000  0.000   1.0 |
 |  0.75  0.50  0.07  2  4  1  0.000  0.000  1.000  1.000  0.000  0.000   1.0 |
 |  0.75  0.50  0.07  2  5  1  0.000  0.000  1.000  1.000  0.000  0.000   1.0 |
 |  0.75  0.75  0.07  2  1  1  0.000  0.000  1.000  1.000  0.000  0.000   1.0 |
 |  0.75  0.75  0.07  2  2  1  0.000  0.000  1.000  1.000  0.000  0.000   1.0 |
 |  0.75  0.75  0.07  2  3  1  0.000  0.000  1.000  1.000  0.000  0.000   1.0 |
 |  0.75  0.75  0.07  2  4  1  0.000  0.000  1.000  1.000  0.000  0.000   1.0 |
 |  0.75  0.75  0.07  2  5  1  0.000  0.000  1.000  1.000  0.000  0.000   1.0 |
 |  0.50  0.75  0.08  2  1  1  0.000  0.000  1.000  1.000  0.000  0.000   1.0 |
 |  0.50  0.75  0.08  2  2  1  0.000  0.000  1.000  1.000  0.000  0.000   1.0 |
 |  0.50  0.75  0.08  2  3  1  0.000  0.000  1.000  1.000  0.000  0.000   1.0 |
 |  0.50  0.75  0.08  2  4  1  0.000  0.000  1.000  1.000  0.000  0.000   1.0 |
 |  0.50  0.75  0.08  2  5  1  0.000  0.000  1.000  1.000  0.000  0.000   1.0 |
 |  0.25  0.75  0.08  2  1  1  0.000  0.000  1.000  1.000  0.000  0.000   1.0 |
 |  0.25  0.75  0.08  2  2  1  0.000  0.000  1.000  1.000  0.000  0.000   1.0 |
 |  0.25  0.75  0.08  2  3  1  0.000  0.000  1.000  1.000  0.000  0.000   1.0 |
 |  0.25  0.75  0.08  2  4  1  0.000  0.000  1.000  1.000  0.000  0.000   1.0 |
 |  0.25  0.75  0.08  2  5  1  0.000  0.000  1.000  1.000  0.000  0.000   1.0 |
 | -0.00  0.75  0.07  2  1  1  0.000  0.000  1.000  1.000  0.000  0.000   1.0 |
 | -0.00  0.75  0.07  2  2  1  0.000  0.000  1.000  1.000  0.000  0.000   1.0 |
 | -0.00  0.75  0.07  2  3  1  0.000  0.000  1.000  1.000  0.000  0.000   1.0 |
 | -0.00  0.75  0.07  2  4  1  0.000  0.000  1.000  1.000  0.000  0.000   1.0 |
 | -0.00  0.75  0.07  2  5  1  0.000  0.000  1.000  1.000  0.000  0.000   1.0 |
 |  0.50  0.25  0.07  2  1  1  0.000  0.000  1.000  1.000  0.000  0.000   1.0 |
 |  0.50  0.25  0.07  2  2  1  0.000  0.000  1.000  1.000  0.000  0.000   1.0 |
 |  0.50  0.25  0.07  2  3  1  0.000  0.000  1.000  1.000  0.000  0.000   1.0 |
 |  0.50  0.25  0.07  2  4  1  0.000  0.000  1.000  1.000  0.000  0.000   1.0 |
 |  0.50  0.25  0.07  2  5  1  0.000  0.000  1.000  1.000  0.000  0.000   1.0 |
 |  0.50  0.50  0.07  2  1  1  0.000  0.000  1.000  1.000  0.000  0.000   1.0 |
 |  0.50  0.50  0.07  2  2  1  0.000  0.000  1.000  1.000  0.000  0.000   1.0 |
 |  0.50  0.50  0.07  2  3  1  0.000  0.000  1.000  1.000  0.000  0.000   1.0 |
 |  0.50  0.50  0.07  2  4  1  0.000  0.000  1.000  1.000  0.000  0.000   1.0 |
 |  0.50  0.50  0.07  2  5  1  0.000  0.000  1.000  1.000  0.000  0.000   1.0 |
 |  0.25  0.50  0.08  2  1  1  0.000  0.000  1.000  1.000  0.000  0.000   1.0 |
 |  0.25  0.50  0.08  2  2  1  0.000  0.000  1.000  1.000  0.000  0.000   1.0 |
 |  0.25  0.50  0.08  2  3  1  0.000  0.000  1.000  1.000  0.000  0.000   1.0 |
 |  0.25  0.50  0.08  2  4  1  0.000  0.000  1.000  1.000  0.000  0.000   1.0 |
 |  0.25  0.50  0.08  2  5  1  0.000  0.000  1.000  1.000  0.000  0.000   1.0 |
 |  0.25  0.25  0.07  2  1  1  0.000  0.000  1.000  1.000  0.000  0.000   1.0 |
 |  0.25  0.25  0.07  2  2  1  0.000  0.000  1.000  1.000  0.000  0.000   1.0 |
 |  0.25  0.25  0.07  2  3  1  0.000  0.000  1.000  1.000  0.000  0.000   1.0 |
 |  0.25  0.25  0.07  2  4  1  0.000  0.000  1.000  1.000  0.000  0.000   1.0 |
 |  0.25  0.25  0.07  2  5  1  0.000  0.000  1.000  1.000  0.000  0.000   1.0 |
 | -0.00  0.25  0.07  2  1  1  0.000  0.000  1.000  1.000  0.000  0.000   1.0 |
 | -0.00  0.25  0.07  2  2  1  0.000  0.000  1.000  1.000  0.000  0.000   1.0 |
 | -0.00  0.25  0.07  2  3  1  0.000  0.000  1.000  1.000  0.000  0.000   1.0 |
 | -0.00  0.25  0.07  2  4  1  0.000  0.000  1.000  1.000  0.000  0.000   1.0 |
 | -0.00  0.25  0.07  2  5  1  0.000  0.000  1.000  1.000  0.000  0.000   1.0 |
 | -0.00  0.50  0.07  2  1  1  0.000  0.000  1.000  1.000  0.000  0.000   1.0 |
 | -0.00  0.50  0.07  2  2  1  0.000  0.000  1.000  1.000  0.000  0.000   1.0 |
 | -0.00  0.50  0.07  2  3  1  0.000  0.000  1.000  1.000  0.000  0.000   1.0 |
 | -0.00  0.50  0.07  2  4  1  0.000  0.000  1.000  1.000  0.000  0.000   1.0 |
 | -0.00  0.50  0.07  2  5  1  0.000  0.000  1.000  1.000  0.000  0.000   1.0 |
 |  0.17  0.08  0.00  1  1  1  0.000  0.000  1.000  1.000  0.000  0.000   1.0 |
 |  0.17  0.08  0.00  1  2  1  0.000  0.000  1.000  1.000  0.000  0.000   1.0 |
 |  0.17  0.08  0.00  1  3  1  0.000  0.000  1.000  1.000  0.000  0.000   1.0 |
 |  0.17  0.08  0.14  1  1  1  0.000  0.000  1.000  1.000  0.000  0.000   1.0 |
 |  0.17  0.08  0.14  1  2  1  0.000  0.000  1.000  1.000  0.000  0.000   1.0 |
 |  0.17  0.08  0.14  1  3  1  0.000  0.000  1.000  1.000  0.000  0.000   1.0 |
 |  0.42  0.08 -0.00  1  1  1  0.000  0.000  1.000  1.000  0.000  0.000   1.0 |
 |  0.42  0.08 -0.00  1  2  1  0.000  0.000  1.000  1.000  0.000  0.000   1.0 |
 |  0.42  0.08 -0.00  1  3  1  0.000  0.000  1.000  1.000  0.000  0.000   1.0 |
 |  0.42  0.09  0.14  1  1  1  0.000  0.000  1.000  1.000  0.000  0.000   1.0 |
 |  0.42  0.09  0.14  1  2  1  0.000  0.000  1.000  1.000  0.000  0.000   1.0 |
 |  0.42  0.09  0.14  1  3  1  0.000  0.000  1.000  1.000  0.000  0.000   1.0 |
 |  0.67  0.08 -0.00  1  1  1  0.000  0.000  1.000  1.000  0.000  0.000   1.0 |
 |  0.67  0.08 -0.00  1  2  1  0.000  0.000  1.000  1.000  0.000  0.000   1.0 |
 |  0.67  0.08 -0.00  1  3  1  0.000  0.000  1.000  1.000  0.000  0.000   1.0 |
 |  0.67  0.09  0.14  1  1  1  0.000  0.000  1.000  1.000  0.000  0.000   1.0 |
 |  0.67  0.09  0.14  1  2  1  0.000  0.000  1.000  1.000  0.000  0.000   1.0 |
 |  0.67  0.09  0.14  1  3  1  0.000  0.000  1.000  1.000  0.000  0.000   1.0 |
 |  0.92  0.08  0.00  1  1  1  0.000  0.000  1.000  1.000  0.000  0.000   1.0 |
 |  0.92  0.08  0.00  1  2  1  0.000  0.000  1.000  1.000  0.000  0.000   1.0 |
 |  0.92  0.08  0.00  1  3  1  0.000  0.000  1.000  1.000  0.000  0.000   1.0 |
 |  0.92  0.08  0.14  1  1  1  0.000  0.000  1.000  1.000  0.000  0.000   1.0 |
 |  0.92  0.08  0.14  1  2  1  0.000  0.000  1.000  1.000  0.000  0.000   1.0 |
 |  0.92  0.08  0.14  1  3  1  0.000  0.000  1.000  1.000  0.000  0.000   1.0 |
 |  0.92  0.33 -0.00  1  1  1  0.000  0.000  1.000  1.000  0.000  0.000   1.0 |
 |  0.92  0.33 -0.00  1  2  1  0.000  0.000  1.000  1.000  0.000  0.000   1.0 |
 |  0.92  0.33 -0.00  1  3  1  0.000  0.000  1.000  1.000  0.000  0.000   1.0 |
 |  0.91  0.33  0.14  1  1  1  0.000  0.000  1.000  1.000  0.000  0.000   1.0 |
 |  0.91  0.33  0.14  1  2  1  0.000  0.000  1.000  1.000  0.000  0.000   1.0 |
 |  0.91  0.33  0.14  1  3  1  0.000  0.000  1.000  1.000  0.000  0.000   1.0 |
 |  0.92  0.58 -0.00  1  1  1  0.000  0.000  1.000  1.000  0.000  0.000   1.0 |
 |  0.92  0.58 -0.00  1  2  1  0.000  0.000  1.000  1.000  0.000  0.000   1.0 |
 |  0.92  0.58 -0.00  1  3  1  0.000  0.000  1.000  1.000  0.000  0.000   1.0 |
 |  0.91  0.58  0.14  1  1  1  0.000  0.000  1.000  1.000  0.000  0.000   1.0 |
 |  0.91  0.58  0.14  1  2  1  0.000  0.000  1.000  1.000  0.000  0.000   1.0 |
 |  0.91  0.58  0.14  1  3  1  0.000  0.000  1.000  1.000  0.000  0.000   1.0 |
 |  0.92  0.83  0.00  1  1  1  0.000  0.000  1.000  1.000  0.000  0.000   1.0 |
 |  0.92  0.83  0.00  1  2  1  0.000  0.000  1.000  1.000  0.000  0.000   1.0 |
 |  0.92  0.83  0.00  1  3  1  0.000  0.000  1.000  1.000  0.000  0.000   1.0 |
 |  0.92  0.83  0.14  1  1  1  0.000  0.000  1.000  1.000  0.000  0.000   1.0 |
 |  0.92  0.83  0.14  1  2  1  0.000  0.000  1.000  1.000  0.000  0.000   1.0 |
 |  0.92  0.83  0.14  1  3  1  0.000  0.000  1.000  1.000  0.000  0.000   1.0 |
 |  0.66  0.83  0.00  1  1  1  0.000  0.000  1.000  1.000  0.000  0.000   1.0 |
 |  0.66  0.83  0.00  1  2  1  0.000  0.000  1.000  1.000  0.000  0.000   1.0 |
 |  0.66  0.83  0.00  1  3  1  0.000  0.000  1.000  1.000  0.000  0.000   1.0 |
 |  0.67  0.84  0.15  1  1  1  0.000  0.000  1.000  1.000  0.000  0.000   1.0 |
 |  0.67  0.84  0.15  1  2  1  0.000  0.000  1.000  1.000  0.000  0.000   1.0 |
 |  0.67  0.84  0.15  1  3  1  0.000  0.000  1.000  1.000  0.000  0.000   1.0 |
 |  0.41  0.83  0.01  1  1  1  0.000  0.000  1.000  1.000  0.000  0.000   1.0 |
 |  0.41  0.83  0.01  1  2  1  0.000  0.000  1.000  1.000  0.000  0.000   1.0 |
 |  0.41  0.83  0.01  1  3  1  0.000  0.000  1.000  1.000  0.000  0.000   1.0 |
 |  0.43  0.86  0.15  1  1  1  0.000  0.000  1.000  1.000  0.000  0.000   1.0 |
 |  0.43  0.86  0.15  1  2  1  0.000  0.000  1.000  1.000  0.000  0.000   1.0 |
 |  0.43  0.86  0.15  1  3  1  0.000  0.000  1.000  1.000  0.000  0.000   1.0 |
 |  0.17  0.83  0.00  1  1  1  0.000  0.000  1.000  1.000  0.000  0.000   1.0 |
 |  0.17  0.83  0.00  1  2  1  0.000  0.000  1.000  1.000  0.000  0.000   1.0 |
 |  0.17  0.83  0.00  1  3  1  0.000  0.000  1.000  1.000  0.000  0.000   1.0 |
 |  0.16  0.84  0.15  1  1  1  0.000  0.000  1.000  1.000  0.000  0.000   1.0 |
 |  0.16  0.84  0.15  1  2  1  0.000  0.000  1.000  1.000  0.000  0.000   1.0 |
 |  0.16  0.84  0.15  1  3  1  0.000  0.000  1.000  1.000  0.000  0.000   1.0 |
 |  0.67  0.33 -0.00  1  1  1  0.000  0.000  1.000  1.000  0.000  0.000   1.0 |
 |  0.67  0.33 -0.00  1  2  1  0.000  0.000  1.000  1.000  0.000  0.000   1.0 |
 |  0.67  0.33 -0.00  1  3  1  0.000  0.000  1.000  1.000  0.000  0.000   1.0 |
 |  0.67  0.33  0.14  1  1  1  0.000  0.000  1.000  1.000  0.000  0.000   1.0 |
 |  0.67  0.33  0.14  1  2  1  0.000  0.000  1.000  1.000  0.000  0.000   1.0 |
 |  0.67  0.33  0.14  1  3  1  0.000  0.000  1.000  1.000  0.000  0.000   1.0 |
 |  0.67  0.58 -0.00  1  1  1  0.000  0.000  1.000  1.000  0.000  0.000   1.0 |
 |  0.67  0.58 -0.00  1  2  1  0.000  0.000  1.000  1.000  0.000  0.000   1.0 |
 |  0.67  0.58 -0.00  1  3  1  0.000  0.000  1.000  1.000  0.000  0.000   1.0 |
 |  0.67  0.58  0.14  1  1  1  0.000  0.000  1.000  1.000  0.000  0.000   1.0 |
 |  0.67  0.58  0.14  1  2  1  0.000  0.000  1.000  1.000  0.000  0.000   1.0 |
 |  0.67  0.58  0.14  1  3  1  0.000  0.000  1.000  1.000  0.000  0.000   1.0 |
 |  0.41  0.59  0.01  1  1  1  0.000  0.000  1.000  1.000  0.000  0.000   1.0 |
 |  0.41  0.59  0.01  1  2  1  0.000  0.000  1.000  1.000  0.000  0.000   1.0 |
 |  0.41  0.59  0.01  1  3  1  0.000  0.000  1.000  1.000  0.000  0.000   1.0 |
 |  0.43  0.57  0.15  1  1  1  0.000  0.000  1.000  1.000  0.000  0.000   1.0 |
 |  0.43  0.57  0.15  1  2  1  0.000  0.000  1.000  1.000  0.000  0.000   1.0 |
 |  0.43  0.57  0.15  1  3  1  0.000  0.000  1.000  1.000  0.000  0.000   1.0 |
 |  0.42  0.33 -0.00  1  1  1  0.000  0.000  1.000  1.000  0.000  0.000   1.0 |
 |  0.42  0.33 -0.00  1  2  1  0.000  0.000  1.000  1.000  0.000  0.000   1.0 |
 |  0.42  0.33 -0.00  1  3  1  0.000  0.000  1.000  1.000  0.000  0.000   1.0 |
 |  0.42  0.33  0.14  1  1  1  0.000  0.000  1.000  1.000  0.000  0.000   1.0 |
 |  0.42  0.33  0.14  1  2  1  0.000  0.000  1.000  1.000  0.000  0.000   1.0 |
 |  0.42  0.33  0.14  1  3  1  0.000  0.000  1.000  1.000  0.000  0.000   1.0 |
 |  0.17  0.34  0.00  1  1  1  0.000  0.000  1.000  1.000  0.000  0.000   1.0 |
 |  0.17  0.34  0.00  1  2  1  0.000  0.000  1.000  1.000  0.000  0.000   1.0 |
 |  0.17  0.34  0.00  1  3  1  0.000  0.000  1.000  1.000  0.000  0.000   1.0 |
 |  0.16  0.33  0.15  1  1  1  0.000  0.000  1.000  1.000  0.000  0.000   1.0 |
 |  0.16  0.33  0.15  1  2  1  0.000  0.000  1.000  1.000  0.000  0.000   1.0 |
 |  0.16  0.33  0.15  1  3  1  0.000  0.000  1.000  1.000  0.000  0.000   1.0 |
 |  0.17  0.59  0.01  1  1  1  0.000  0.000  1.000  1.000  0.000  0.000   1.0 |
 |  0.17  0.59  0.01  1  2  1  0.000  0.000  1.000  1.000  0.000  0.000   1.0 |
 |  0.17  0.59  0.01  1  3  1  0.000  0.000  1.000  1.000  0.000  0.000   1.0 |
 |  0.14  0.57  0.15  1  1  1  0.000  0.000  1.000  1.000  0.000  0.000   1.0 |
 |  0.14  0.57  0.15  1  2  1  0.000  0.000  1.000  1.000  0.000  0.000   1.0 |
 |  0.14  0.57  0.15  1  3  1  0.000  0.000  1.000  1.000  0.000  0.000   1.0 |
 +----------------------------------------------------------------------------+
  
                                ------------
                                K-POINT GRID
                                ------------
  
             Grid size =  1 x  1 x  1      Total points =    1
  
 *----------------------------------------------------------------------------*
 | k-point      Fractional Coordinate        Cartesian Coordinate (Ang^-1)    |
 +----------------------------------------------------------------------------+
 |     1    0.00000   0.00000   0.00000   |    0.00000   0.00000   0.00000    |
 *----------------------------------------------------------------------------*
  
  
 *---------------------------------- MAIN ------------------------------------*
 |  Number of Wannier Functions               :               191             |
 |  Number of Objective Wannier Functions     :               191             |
 |  Number of input Bloch states              :               450             |
 |  Output verbosity (1=low, 5=high)          :                 3             |
 |  Timing Level (1=low, 5=high)              :                 1             |
 |  Optimisation (0=memory, 3=speed)          :                 3             |
 |  Length Unit                               :               Ang             |
 |  Post-processing setup (write *.nnkp)      :                 F             |
 |  Using Gamma-only branch of algorithms     :                 F             |
 |  CP code post-processing                   :                 F             |
 |  Wavefunction (UNK) file-type              :       unformatted             |
 |  Wavefunction spin channel                 :                up             |
 *----------------------------------------------------------------------------*
 *------------------------------- WANNIERISE ---------------------------------*
 |  Total number of iterations                :               500             |
 |  Number of CG steps before reset           :                 5             |
 |  Trial step length for line search         :             2.000             |
 |  Convergence tolerence                     :         0.100E-09             |
 |  Convergence window                        :                -1             |
 |  Iterations between writing output         :                50             |
 |  Iterations between backing up to disk     :               100             |
 |  Write r^2_nm to file                      :                 F             |
 |  Write xyz WF centres to file              :                 T             |
 |  Write on-site energies <0n|H|0n> to file  :                 F             |
 |  Use guiding centre to control phases      :                 T             |
 |  Use phases for initial projections        :                 F             |
 |  Iterations before starting guiding centres:                 0             |
 |  Iterations between using guiding centres  :                 1             |
 |  Perform selective localization            :                 F             |
 |  Use constrains in selective localization  :                 F             |
 |  Value of the Lagrange multiplier          :         0.100E+01             |
 *----------------------------------------------------------------------------*
 *------------------------------- DISENTANGLE --------------------------------*
 |  Using band disentanglement                :                 T             |
 |  Total number of iterations                :              4000             |
 |  Mixing ratio                              :             0.500             |
 |  Convergence tolerence                     :         1.000E-10             |
 |  Convergence window                        :                 3             |
 *----------------------------------------------------------------------------*
 *-------------------------------- PLOTTING ----------------------------------*
 |  Plotting Wannier functions                :                 F             |
 |   Size of supercell for plotting           :     2x    2x    2             |
 |   Plotting mode (molecule or crystal)      :           crystal             |
 |   Plotting format                          :          xcrysden             |
 |   Plot radius                              :             3.500             |
 |   Plot scale                               :             1.000             |
 *----------------------------------------------------------------------------*
 |  Plotting Fermi surface                    :                 F             |
 |   Number of plotting points (along b_1)    :                50             |
 |   Plotting format                          :          xcrysden             |
 *----------------------------------------------------------------------------*
 |  Plotting interpolated bandstructure       :                 T             |
 |   Number of K-path sections                :                 4             |
 |   Divisions along first K-path section     :               100             |
 |   Output format                            :           gnuplot             |
 |   Output mode                              :               s-k             |
 *----------------------------------------------------------------------------*
 |   K-space path sections:                                                   |
 |    From: Γ      0.000  0.000  0.000     To: X       0.500  0.000  0.000   |
 |    From: X       0.500  0.000  0.000     To: S       0.500  0.500  0.000   |
 |    From: S       0.500  0.500  0.000     To: Y       0.000  0.500  0.000   |
 |    From: Y       0.000  0.500  0.000     To: Γ      0.000  0.000  0.000   |
 *----------------------------------------------------------------------------*
 |  Plotting Hamiltonian in WF basis          :                 T             |
 *----------------------------------------------------------------------------*
 |  Writing data for Van der Waals post-proc  :                 F             |
 *----------------------------------------------------------------------------*
 *------------------------------- TRANSPORT ----------------------------------*
 |  Transport mode                            :              bulk             |
 |   Hamiltonian from external files          :                 F             |
 |   System extended in                       :              none             |
 |   Centre of the unit cell to which WF are translated (fract. coords):      |
 |                                       0.000000,    0.000000,    0.000000   |
 |  Fermi energy (eV)                         :             0.000             |
 *----------------------------------------------------------------------------*
 Time to read parameters        0.018 (sec)

 *---------------------------------- K-MESH ----------------------------------*
 +----------------------------------------------------------------------------+
 |                    Distance to Nearest-Neighbour Shells                    |
 |                    ------------------------------------                    |
 |          Shell             Distance (Ang^-1)          Multiplicity         |
 |          -----             -----------------          ------------         |
 |             1                   0.265883                      2            |
 |             2                   0.526343                      6            |
 |             3                   0.531765                      2            |
 |             4                   0.589686                     12            |
 |             5                   0.748205                     12            |
 |             6                   0.797648                      2            |
 |             7                   0.911652                      6            |
 |             8                   0.949633                     12            |
 |             9                   0.955656                     12            |
 |            10                   1.052685                      6            |
 |            11                   1.055407                     12            |
 |            12                   1.063530                      2            |
 |            13                   1.085744                     12            |
 |            14                   1.179373                     12            |
 |            15                   1.186648                     12            |
 |            16                   1.211343                     12            |
 |            17                   1.320753                     12            |
 |            18                   1.329413                      2            |
 |            19                   1.392572                     12            |
 |            20                   1.400788                     12            |
 |            21                   1.417727                     24            |
 |            22                   1.429816                     12            |
 |            23                   1.490648                     24            |
 |            24                   1.496410                     12            |
 |            25                   1.579028                      6            |
 |            26                   1.601257                     12            |
 |            27                   1.604836                     24            |
 |            28                   1.611970                     12            |
 |            29                   1.666164                     12            |
 |            30                   1.695726                     12            |
 |            31                   1.752242                     24            |
 |            32                   1.769059                     12            |
 |            33                   1.823305                      6            |
 |            34                   1.842589                     12            |
 |            35                   1.897756                     12            |
 |            36                   1.899267                     12            |
 +----------------------------------------------------------------------------+
 | The b-vectors are chosen automatically                                     |
 | Shell:  1 Multiplicity:  2                                                 |
 | b-vector 1 :        0.000000    0.000000    0.265883      (Ang^-1)         |
 | b-vector 2 :        0.000000    0.000000   -0.265883      (Ang^-1)         |
 | Shell:  1 w_b    7.0727819      (Ang^2)                                    |
 | B1 condition is not satisfied: Adding another shell                        |
 | Shell:  2 Multiplicity:  6                                                 |
 | b-vector 1 :        0.455826    0.263171    0.000000      (Ang^-1)         |
 | b-vector 2 :        0.455826   -0.263171    0.000000      (Ang^-1)         |
 | b-vector 3 :        0.000000    0.526343    0.000000      (Ang^-1)         |
 | b-vector 4 :        0.000000   -0.526343    0.000000      (Ang^-1)         |
 | b-vector 5 :       -0.455826    0.263171    0.000000      (Ang^-1)         |
 | b-vector 6 :       -0.455826   -0.263171    0.000000      (Ang^-1)         |
 | Shell:  1 w_b    7.0727819      (Ang^2)                                    |
 | Shell:  2 w_b    1.2032104      (Ang^2)                                    |
 | The following shells are used:   1,  2                                     |
 +----------------------------------------------------------------------------+
 |                        Shell   # Nearest-Neighbours                        |
 |                        -----   --------------------                        |
 |                          1               2                                 |
 |                          2               6                                 |
 +----------------------------------------------------------------------------+
 | Completeness relation is fully satisfied [Eq. (B1), PRB 56, 12847 (1997)]  |
 +----------------------------------------------------------------------------+
 |                  b_k Vectors (Ang^-1) and Weights (Ang^2)                  |
 |                  ----------------------------------------                  |
 |            No.         b_k(x)      b_k(y)      b_k(z)        w_b           |
 |            ---        --------------------------------     --------        |
 |             1         0.000000    0.000000    0.265883     7.072782        |
 |             2         0.000000    0.000000   -0.265883     7.072782        |
 |             3         0.455826    0.263171    0.000000     1.203210        |
 |             4         0.455826   -0.263171    0.000000     1.203210        |
 |             5         0.000000    0.526343    0.000000     1.203210        |
 |             6         0.000000   -0.526343    0.000000     1.203210        |
 |             7        -0.455826    0.263171    0.000000     1.203210        |
 |             8        -0.455826   -0.263171    0.000000     1.203210        |
 +----------------------------------------------------------------------------+
 |                           b_k Directions (Ang^-1)                          |
 |                           -----------------------                          |
 |            No.           x           y           z                         |
 |            ---        --------------------------------                     |
 |             1         0.000000    0.000000    0.265883                     |
 |             2         0.455826    0.263171    0.000000                     |
 |             3         0.455826   -0.263171    0.000000                     |
 |             4         0.000000    0.526343    0.000000                     |
 +----------------------------------------------------------------------------+
  
 Time to get kmesh              0.013 (sec)
 *============================================================================*
 |                              MEMORY ESTIMATE                               |
 |         Maximum RAM allocated during each phase of the calculation         |
 *============================================================================*
 |                        Disentanglement           42.01 Mb                  |
 |                            Wannierise:           15.40 Mb                  |
 |                                                                            |
 |   N.B. by setting optimisation=0 memory usage will be reduced to:          |
 |                        Disentanglement           42.01 Mb                  |
 |                            Wannierise:           10.95 Mb                  |
 |   However, this will result in more i/o and slow down the calculation      |
 |                          plot_wannier:           15.40 Mb                  |
 *----------------------------------------------------------------------------*
  
 Starting a new Wannier90 calculation ...


 Reading overlaps from 3cr.down.mmn    :  Created on 20Jul2023 at 20:25: 5

 Reading projections from 3cr.down.amn :  Created on 20Jul2023 at 20:23:53

 Time to read overlaps          3.947 (sec)

 *------------------------------- DISENTANGLE --------------------------------*
 +----------------------------------------------------------------------------+
 |                              Energy  Windows                               |
 |                              ---------------                               |
 |                   Outer:  -30.00000  to   30.00000  (eV)                   |
 |                   Inner:   -6.00000  to    2.50000  (eV)                   |
 +----------------------------------------------------------------------------+
 |                        K-points with Frozen States                         |
 |                        ---------------------------                         |
 |     1                                                                      |
 +----------------------------------------------------------------------------+
   Number of target bands to extract:  191
 +----------------------------------------------------------------------------+
 |                                  Windows                                   |
 |                                  -------                                   |
 |               K-point      Ndimwin     Ndimfroz    Nfirstwin               |
 |               ----------------------------------------------               |
 |                   1          374          159          77                  |
 +----------------------------------------------------------------------------+

                   Unitarised projection of Wannier functions                  
                   ------------------------------------------                  
   A_mn = <psi_m|g_n> --> S = A.A^+ --> U = S^-1/2.A
   In dis_project... done
   Using an inner window (linner = T)
   In dis_proj_froz...
 K-point   1 ndimwin: 374 we want the 32 leading eigenvector(s) of QPQ
  lambda(  1)= -0.000000000000
  lambda(  2)= -0.000000000000
  lambda(  3)= -0.000000000000
  lambda(  4)= -0.000000000000
  lambda(  5)= -0.000000000000
  lambda(  6)= -0.000000000000
  lambda(  7)= -0.000000000000
  lambda(  8)= -0.000000000000
  lambda(  9)= -0.000000000000
  lambda( 10)= -0.000000000000
  lambda( 11)= -0.000000000000
  lambda( 12)= -0.000000000000
  lambda( 13)= -0.000000000000
  lambda( 14)= -0.000000000000
  lambda( 15)= -0.000000000000
  lambda( 16)= -0.000000000000
  lambda( 17)= -0.000000000000
  lambda( 18)= -0.000000000000
  lambda( 19)= -0.000000000000
  lambda( 20)= -0.000000000000
  lambda( 21)= -0.000000000000
  lambda( 22)= -0.000000000000
  lambda( 23)= -0.000000000000
  lambda( 24)= -0.000000000000
  lambda( 25)= -0.000000000000
  lambda( 26)= -0.000000000000
  lambda( 27)= -0.000000000000
  lambda( 28)= -0.000000000000
  lambda( 29)= -0.000000000000
  lambda( 30)= -0.000000000000
  lambda( 31)= -0.000000000000
  lambda( 32)= -0.000000000000
  lambda( 33)= -0.000000000000
  lambda( 34)= -0.000000000000
  lambda( 35)= -0.000000000000
  lambda( 36)= -0.000000000000
  lambda( 37)= -0.000000000000
  lambda( 38)= -0.000000000000
  lambda( 39)= -0.000000000000
  lambda( 40)= -0.000000000000
  lambda( 41)= -0.000000000000
  lambda( 42)= -0.000000000000
  lambda( 43)= -0.000000000000
  lambda( 44)= -0.000000000000
  lambda( 45)= -0.000000000000
  lambda( 46)= -0.000000000000
  lambda( 47)= -0.000000000000
  lambda( 48)= -0.000000000000
  lambda( 49)= -0.000000000000
  lambda( 50)= -0.000000000000
  lambda( 51)= -0.000000000000
  lambda( 52)= -0.000000000000
  lambda( 53)= -0.000000000000
  lambda( 54)= -0.000000000000
  lambda( 55)= -0.000000000000
  lambda( 56)= -0.000000000000
  lambda( 57)= -0.000000000000
  lambda( 58)= -0.000000000000
  lambda( 59)= -0.000000000000
  lambda( 60)= -0.000000000000
  lambda( 61)= -0.000000000000
  lambda( 62)= -0.000000000000
  lambda( 63)= -0.000000000000
  lambda( 64)= -0.000000000000
  lambda( 65)= -0.000000000000
  lambda( 66)= -0.000000000000
  lambda( 67)= -0.000000000000
  lambda( 68)= -0.000000000000
  lambda( 69)= -0.000000000000
  lambda( 70)= -0.000000000000
  lambda( 71)= -0.000000000000
  lambda( 72)= -0.000000000000
  lambda( 73)= -0.000000000000
  lambda( 74)= -0.000000000000
  lambda( 75)= -0.000000000000
  lambda( 76)= -0.000000000000
  lambda( 77)= -0.000000000000
  lambda( 78)= -0.000000000000
  lambda( 79)= -0.000000000000
  lambda( 80)= -0.000000000000
  lambda( 81)= -0.000000000000
  lambda( 82)= -0.000000000000
  lambda( 83)= -0.000000000000
  lambda( 84)= -0.000000000000
  lambda( 85)= -0.000000000000
  lambda( 86)= -0.000000000000
  lambda( 87)= -0.000000000000
  lambda( 88)= -0.000000000000
  lambda( 89)= -0.000000000000
  lambda( 90)= -0.000000000000
  lambda( 91)= -0.000000000000
  lambda( 92)= -0.000000000000
  lambda( 93)=  0.000000000000
  lambda( 94)=  0.000000000000
  lambda( 95)=  0.000000000000
  lambda( 96)=  0.000000000000
  lambda( 97)=  0.000000000000
  lambda( 98)=  0.000000000000
  lambda( 99)=  0.000000000000
  lambda(100)=  0.000000000000
  lambda(101)=  0.000000000000
  lambda(102)=  0.000000000000
  lambda(103)=  0.000000000000
  lambda(104)=  0.000000000000
  lambda(105)=  0.000000000000
  lambda(106)=  0.000000000000
  lambda(107)=  0.000000000000
  lambda(108)=  0.000000000000
  lambda(109)=  0.000000000000
  lambda(110)=  0.000000000000
  lambda(111)=  0.000000000000
  lambda(112)=  0.000000000000
  lambda(113)=  0.000000000000
  lambda(114)=  0.000000000000
  lambda(115)=  0.000000000000
  lambda(116)=  0.000000000000
  lambda(117)=  0.000000000000
  lambda(118)=  0.000000000000
  lambda(119)=  0.000000000000
  lambda(120)=  0.000000000000
  lambda(121)=  0.000000000000
  lambda(122)=  0.000000000000
  lambda(123)=  0.000000000000
  lambda(124)=  0.000000000000
  lambda(125)=  0.000000000000
  lambda(126)=  0.000000000000
  lambda(127)=  0.000000000000
  lambda(128)=  0.000000000000
  lambda(129)=  0.000000000000
  lambda(130)=  0.000000000000
  lambda(131)=  0.000000000000
  lambda(132)=  0.000000000000
  lambda(133)=  0.000000000000
  lambda(134)=  0.000000000000
  lambda(135)=  0.000000000000
  lambda(136)=  0.000000000000
  lambda(137)=  0.000000000000
  lambda(138)=  0.000000000000
  lambda(139)=  0.000000000000
  lambda(140)=  0.000000000000
  lambda(141)=  0.000000000000
  lambda(142)=  0.000000000000
  lambda(143)=  0.000000000000
  lambda(144)=  0.000000000000
  lambda(145)=  0.000000000000
  lambda(146)=  0.000000000000
  lambda(147)=  0.000000000000
  lambda(148)=  0.000000000000
  lambda(149)=  0.000000000000
  lambda(150)=  0.000000000000
  lambda(151)=  0.000000000000
  lambda(152)=  0.000000000000
  lambda(153)=  0.000000000000
  lambda(154)=  0.000000000000
  lambda(155)=  0.000000000000
  lambda(156)=  0.000000000000
  lambda(157)=  0.000000000000
  lambda(158)=  0.000000000000
  lambda(159)=  0.000000000000
  lambda(160)=  0.000000000000
  lambda(161)=  0.000000000000
  lambda(162)=  0.000000000000
  lambda(163)=  0.000000000000
  lambda(164)=  0.000000000000
  lambda(165)=  0.000000000000
  lambda(166)=  0.000000000000
  lambda(167)=  0.000000000000
  lambda(168)=  0.000000000000
  lambda(169)=  0.000000000000
  lambda(170)=  0.000000000000
  lambda(171)=  0.000000000000
  lambda(172)=  0.000000000000
  lambda(173)=  0.000000000000
  lambda(174)=  0.000000000000
  lambda(175)=  0.000000000000
  lambda(176)=  0.000000000000
  lambda(177)=  0.000000000000
  lambda(178)=  0.000000000000
  lambda(179)=  0.000000000000
  lambda(180)=  0.000000000000
  lambda(181)=  0.000000000000
  lambda(182)=  0.000000000000
  lambda(183)=  0.000000000000
  lambda(184)=  0.000000005743
  lambda(185)=  0.000000020981
  lambda(186)=  0.000000026984
  lambda(187)=  0.000000035317
  lambda(188)=  0.000000048310
  lambda(189)=  0.000000129695
  lambda(190)=  0.000000192327
  lambda(191)=  0.000000270611
  lambda(192)=  0.000000306102
  lambda(193)=  0.000000406775
  lambda(194)=  0.000000482092
  lambda(195)=  0.000000669146
  lambda(196)=  0.000000982051
  lambda(197)=  0.000001115201
  lambda(198)=  0.000001297438
  lambda(199)=  0.000001691767
  lambda(200)=  0.000002321232
  lambda(201)=  0.000002628511
  lambda(202)=  0.000004997363
  lambda(203)=  0.000005615205
  lambda(204)=  0.000008199577
  lambda(205)=  0.000008920053
  lambda(206)=  0.000011886785
  lambda(207)=  0.000013321809
  lambda(208)=  0.000015357241
  lambda(209)=  0.000018644597
  lambda(210)=  0.000022646335
  lambda(211)=  0.000024431086
  lambda(212)=  0.000035970738
  lambda(213)=  0.000039992370
  lambda(214)=  0.000042650653
  lambda(215)=  0.000053537671
  lambda(216)=  0.000069615263
  lambda(217)=  0.000092693922
  lambda(218)=  0.000108030605
  lambda(219)=  0.000128882781
  lambda(220)=  0.000161049802
  lambda(221)=  0.000193107548
  lambda(222)=  0.000213536624
  lambda(223)=  0.000250961522
  lambda(224)=  0.000310004140
  lambda(225)=  0.000359330182
  lambda(226)=  0.000392653361
  lambda(227)=  0.000412696194
  lambda(228)=  0.000518504940
  lambda(229)=  0.000618261352
  lambda(230)=  0.000672545736
  lambda(231)=  0.000790044064
  lambda(232)=  0.000854372591
  lambda(233)=  0.001095329118
  lambda(234)=  0.001258895664
  lambda(235)=  0.001324054393
  lambda(236)=  0.001592167990
  lambda(237)=  0.001753559564
  lambda(238)=  0.001902918367
  lambda(239)=  0.002261687590
  lambda(240)=  0.002315394125
  lambda(241)=  0.002466065390
  lambda(242)=  0.002696722224
  lambda(243)=  0.003852170142
  lambda(244)=  0.004337865070
  lambda(245)=  0.004746040073
  lambda(246)=  0.005428548415
  lambda(247)=  0.005974760111
  lambda(248)=  0.006136266947
  lambda(249)=  0.006880680792
  lambda(250)=  0.007430634812
  lambda(251)=  0.007906355563
  lambda(252)=  0.008709881914
  lambda(253)=  0.009326014644
  lambda(254)=  0.009820401965
  lambda(255)=  0.010486902138
  lambda(256)=  0.011191448117
  lambda(257)=  0.012053087551
  lambda(258)=  0.012326766239
  lambda(259)=  0.013289458123
  lambda(260)=  0.014009296144
  lambda(261)=  0.014345777162
  lambda(262)=  0.015557963472
  lambda(263)=  0.016138876787
  lambda(264)=  0.016445673348
  lambda(265)=  0.018713797485
  lambda(266)=  0.019387496473
  lambda(267)=  0.023236298306
  lambda(268)=  0.025649753599
  lambda(269)=  0.028496161338
  lambda(270)=  0.030165413875
  lambda(271)=  0.030841783771
  lambda(272)=  0.031834116435
  lambda(273)=  0.032557826826
  lambda(274)=  0.032780199124
  lambda(275)=  0.033543345482
  lambda(276)=  0.034718091273
  lambda(277)=  0.035679857271
  lambda(278)=  0.037355037454
  lambda(279)=  0.038573223029
  lambda(280)=  0.040481088947
  lambda(281)=  0.042062407071
  lambda(282)=  0.043794263909
  lambda(283)=  0.046336849814
  lambda(284)=  0.049280579935
  lambda(285)=  0.050513387465
  lambda(286)=  0.052000385366
  lambda(287)=  0.053979761464
  lambda(288)=  0.056936923262
  lambda(289)=  0.059174779678
  lambda(290)=  0.060703266961
  lambda(291)=  0.063022247235
  lambda(292)=  0.065144339013
  lambda(293)=  0.066290933422
  lambda(294)=  0.067501580087
  lambda(295)=  0.068005946088
  lambda(296)=  0.069787209641
  lambda(297)=  0.072396048282
  lambda(298)=  0.074394934980
  lambda(299)=  0.079310151926
  lambda(300)=  0.083533865387
  lambda(301)=  0.088782828436
  lambda(302)=  0.091613493772
  lambda(303)=  0.097155517672
  lambda(304)=  0.100475565940
  lambda(305)=  0.103479286861
  lambda(306)=  0.106691919656
  lambda(307)=  0.112959017016
  lambda(308)=  0.113889636094
  lambda(309)=  0.114818441245
  lambda(310)=  0.118249387033
  lambda(311)=  0.121901189755
  lambda(312)=  0.123095301297
  lambda(313)=  0.129924650392
  lambda(314)=  0.133168493484
  lambda(315)=  0.135523840365
  lambda(316)=  0.135607484208
  lambda(317)=  0.137039076658
  lambda(318)=  0.138333417583
  lambda(319)=  0.144546423626
  lambda(320)=  0.148811317215
  lambda(321)=  0.159283975602
  lambda(322)=  0.160607702461
  lambda(323)=  0.162549929097
  lambda(324)=  0.165845312718
  lambda(325)=  0.167707666818
  lambda(326)=  0.170018961861
  lambda(327)=  0.172944061121
  lambda(328)=  0.175744914175
  lambda(329)=  0.179915074880
  lambda(330)=  0.182058411053
  lambda(331)=  0.186168465551
  lambda(332)=  0.192112986031
  lambda(333)=  0.192795987508
  lambda(334)=  0.199722227209
  lambda(335)=  0.202117011346
  lambda(336)=  0.209146794109
  lambda(337)=  0.235096570789
  lambda(338)=  0.259153247112
  lambda(339)=  0.289342061038
  lambda(340)=  0.302798042038
  lambda(341)=  0.364613275615
  lambda(342)=  0.548197753498
  lambda(343)=  1.000000000000
  lambda(344)=  1.000000000000
  lambda(345)=  1.000000000000
  lambda(346)=  1.000000000000
  lambda(347)=  1.000000000000
  lambda(348)=  1.000000000000
  lambda(349)=  1.000000000000
  lambda(350)=  1.000000000000
  lambda(351)=  1.000000000000
  lambda(352)=  1.000000000000
  lambda(353)=  1.000000000000
  lambda(354)=  1.000000000000
  lambda(355)=  1.000000000000
  lambda(356)=  1.000000000000
  lambda(357)=  1.000000000000
  lambda(358)=  1.000000000000
  lambda(359)=  1.000000000000
  lambda(360)=  1.000000000000
  lambda(361)=  1.000000000000
  lambda(362)=  1.000000000000
  lambda(363)=  1.000000000000
  lambda(364)=  1.000000000000
  lambda(365)=  1.000000000000
  lambda(366)=  1.000000000000
  lambda(367)=  1.000000000000
  lambda(368)=  1.000000000000
  lambda(369)=  1.000000000000
  lambda(370)=  1.000000000000
  lambda(371)=  1.000000000000
  lambda(372)=  1.000000000000
  lambda(373)=  1.000000000000
  lambda(374)=  1.000000000000
 done

                   Extraction of optimally-connected subspace                  
                   ------------------------------------------                  
  Original eigenvalues inside outer window:

  K-point   1   -15.72545 -15.29227 -14.92376 -14.71995 -14.47956 -14.37629 -14.14479 -14.11812 -13.88740 -13.81555 -13.77882 -13.72792 -13.61799 -13.59581 -13.45153 -13.35169 -13.33447 -13.31740 -13.22225 -13.19863
-13.19629 -13.17662 -13.14288 -13.09213 -13.09161 -13.06767 -13.06075 -13.03611 -13.00405 -12.98617 -12.98039 -12.94003  -7.12118  -6.75794  -6.52904  -6.41539  -6.21622  -6.07415  -6.04392  -5.98131
 -5.87936  -5.76276  -5.71040  -5.67509  -5.57346  -5.54110  -5.44300  -5.39638  -5.37906  -5.33391  -5.32179  -5.28477  -5.25941  -5.25145  -5.18044  -5.16469  -5.11649  -5.07858  -5.05773  -5.00224
 -4.96348  -4.87139  -4.77723  -4.64991  -4.54659  -4.53920  -4.50072  -4.46542  -4.42539  -4.39788  -4.36939  -4.32191  -4.25847  -4.20840  -4.18490  -4.16408  -4.13967  -4.12003  -4.07403  -4.05744
 -4.03510  -3.90781  -3.87365  -3.81603  -3.77102  -3.65326  -3.62085  -3.58517  -3.56362  -3.50614  -3.48854  -3.45712  -3.40981  -3.37017  -3.34691  -3.23270  -3.20938  -3.06276  -3.05053  -2.97663
 -2.90373  -2.85517  -2.84725  -2.79323  -2.77562  -2.70660  -2.67126  -2.60978  -2.55551  -2.49478  -2.45941  -2.41379  -2.41021  -2.38566  -2.34521  -2.32264  -2.30763  -2.29159  -2.25239  -2.23145
 -2.19315  -2.15806  -2.13477  -1.99177  -1.95286  -1.89959  -1.84813  -1.81410  -1.73420  -1.67221  -1.58970  -1.50221  -1.44175  -1.34417  -1.31866  -1.25442  -1.20915  -1.19642  -1.14181  -1.05551
 -1.01390  -0.96999  -0.89408  -0.69345  -0.06109   0.18438   0.28768   0.44008   0.62301   0.83258   0.86993   0.94590   0.99263   1.00996   1.07190   1.12235   1.14393   1.15984   1.24297   1.25246
  1.35634   1.36926   1.41813   1.43774   1.45110   1.46635   1.49583   1.51613   1.53461   1.57027   1.59577   1.66273   1.68105   1.70290   1.72936   1.79554   1.80533   1.82793   1.84974   1.88945
  1.90591   1.92173   1.94612   1.99828   2.00534   2.01971   2.03277   2.07256   2.11226   2.12188   2.15923   2.18652   2.21807   2.30514   2.36456   2.41035   2.45078   2.49929   2.52247   2.60351
  2.63714   2.69231   2.71900   2.82611   2.87616   2.88448   2.95349   2.99162   3.09765   3.20534   3.23604   3.28888   3.32967   3.35868   3.41943   3.48784   3.52901   3.57445   3.58656   3.64111
  3.66131   3.71057   3.77213   3.80298   3.97688   4.10020   4.19554   4.22853   4.34905   4.39030   4.46100   4.49503   4.52708   4.56915   4.63185   4.70530   4.82034   4.86195   4.88471   4.90286
  4.91322   4.91569   4.92799   5.00670   5.04878   5.07199   5.09711   5.11547   5.11728   5.33430   5.39149   5.58666   5.61566   5.72299   5.74911   5.80385   5.85477   5.85970   5.87912   5.88895
  5.91746   5.93710   5.94557   5.95567   6.05218   6.09930   6.11230   6.14034   6.19921   6.21355   6.23201   6.24843   6.27817   6.30409   6.32082   6.32377   6.34440   6.39625   6.42230   6.45185
  6.48087   6.51225   6.52528   6.59288   6.60891   6.62974   6.63824   6.74267   6.76752   6.84670   6.87846   6.88713   6.94052   6.95734   6.97433   6.97571   6.98515   7.00695   7.00992   7.02079
  7.04031   7.04455   7.10190   7.23026   7.24753   7.28908   7.30867   7.32473   7.34489   7.34980   7.37217   7.42763   7.43192   7.47179   7.49454   7.53424   7.59051   7.61153   7.63173   7.64067
  7.65482   7.65594   7.66308   7.67741   7.68031   7.68198   7.69523   7.70791   7.73312   7.75606   7.80286   7.82275   7.86558   7.88212   7.95803   7.97261   7.97603   7.99206   8.03156   8.04529
  8.06056   8.06535   8.08083   8.12749   8.13595   8.15145   8.30771   8.35082   8.36772   8.40458   8.41626   8.43024   8.43561   8.46126   8.48046   8.51839   8.52950   8.54982   8.55281   8.56552
  8.57635   8.60657   8.61188   8.63686   8.82020   8.84817   8.91151   8.91578   8.93194   8.95058   8.96841   8.98530   8.99073   9.01755
 +---------------------------------------------------------------------+<-- DIS
 |  Iter     Omega_I(i-1)      Omega_I(i)      Delta (frac.)    Time   |<-- DIS
 +---------------------------------------------------------------------+<-- DIS
       1     325.94146931     322.48702238       1.071E-02      0.00    <-- DIS
       2     323.02658936     321.39830840       5.066E-03      0.20    <-- DIS
       3     321.85463995     320.62975666       3.820E-03      0.40    <-- DIS
       4     320.96802823     320.05648154       2.848E-03      0.60    <-- DIS
       5     320.29765175     319.61794392       2.127E-03      0.79    <-- DIS
       6     319.78706745     319.27591705       1.601E-03      0.99    <-- DIS
       7     319.39371527     319.00476660       1.219E-03      1.18    <-- DIS
       8     319.08663194     318.78675062       9.407E-04      1.38    <-- DIS
       9     318.84359048     318.60928038       7.354E-04      1.58    <-- DIS
      10     318.64865603     318.46323031       5.823E-04      1.78    <-- DIS
      11     318.49033903     318.34185986       4.664E-04      1.97    <-- DIS
      12     318.36027292     318.24010687       3.776E-04      2.17    <-- DIS
      13     318.25229057     318.15411342       3.086E-04      2.37    <-- DIS
      14     318.16178560     318.08090072       2.543E-04      2.56    <-- DIS
      15     318.08527094     318.01814192       2.111E-04      2.76    <-- DIS
      16     318.02007223     317.96400039       1.763E-04      2.96    <-- DIS
      17     317.96411312     317.91701288       1.482E-04      3.15    <-- DIS
      18     317.91576306     317.87600376       1.251E-04      3.35    <-- DIS
      19     317.87372826     317.84002120       1.061E-04      3.55    <-- DIS
      20     317.83697240     317.80828922       9.025E-05      3.74    <-- DIS
      21     317.80465822     317.78017109       7.706E-05      3.94    <-- DIS
      22     317.77610410     317.75514130       6.597E-05      4.14    <-- DIS
      23     317.75075111     317.73276369       5.661E-05      4.34    <-- DIS
      24     317.72813804     317.71267441       4.867E-05      4.53    <-- DIS
      25     317.70788199     317.69456845       4.191E-05      4.73    <-- DIS
      26     317.68966336     317.67818897       3.612E-05      4.92    <-- DIS
      27     317.67321399     317.66331871       3.115E-05      5.12    <-- DIS
      28     317.65830783     317.64977316       2.687E-05      5.32    <-- DIS
      29     317.64475341     317.63739496       2.317E-05      5.51    <-- DIS
      30     317.63238787     317.62604940       1.996E-05      5.71    <-- DIS
      31     317.62107214     317.61562070       1.716E-05      5.91    <-- DIS
      32     317.61068693     317.60600903       1.473E-05      6.10    <-- DIS
      33     317.60112957     317.59712795       1.260E-05      6.30    <-- DIS
      34     317.59231135     317.58890240       1.073E-05      6.50    <-- DIS
      35     317.58415533     317.58126694       9.095E-06      6.70    <-- DIS
      36     317.57659457     317.57416434       7.652E-06      6.89    <-- DIS
      37     317.56957061     317.56754440       6.380E-06      7.09    <-- DIS
      38     317.56303221     317.56136291       5.257E-06      7.28    <-- DIS
      39     317.55693435     317.55558084       4.262E-06      7.48    <-- DIS
      40     317.55123730     317.55016362       3.381E-06      7.68    <-- DIS
      41     317.54590592     317.54508050       2.599E-06      7.87    <-- DIS
      42     317.54090902     317.54030412       1.905E-06      8.07    <-- DIS
      43     317.53621883     317.53580998       1.288E-06      8.27    <-- DIS
      44     317.53181056     317.53157614       7.383E-07      8.46    <-- DIS
      45     317.52766200     317.52758286       2.492E-07      8.66    <-- DIS
      46     317.52375322     317.52381236      -1.863E-07      8.85    <-- DIS
      47     317.52006625     317.52024857      -5.742E-07      9.05    <-- DIS
      48     317.51658489     317.51687690      -9.197E-07      9.25    <-- DIS
      49     317.51329444     317.51368413      -1.227E-06      9.44    <-- DIS
      50     317.51018160     317.51065819      -1.501E-06      9.64    <-- DIS
      51     317.50723423     317.50778808      -1.744E-06      9.84    <-- DIS
      52     317.50444128     317.50506372      -1.960E-06     10.04    <-- DIS
      53     317.50179264     317.50247590      -2.152E-06     10.23    <-- DIS
      54     317.49927906     317.50001612      -2.321E-06     10.43    <-- DIS
      55     317.49689204     317.49767657      -2.471E-06     10.62    <-- DIS
      56     317.49462375     317.49545005      -2.603E-06     10.82    <-- DIS
      57     317.49246700     317.49332990      -2.718E-06     11.02    <-- DIS
      58     317.49041513     317.49130995      -2.818E-06     11.21    <-- DIS
      59     317.48846198     317.48938449      -2.906E-06     11.41    <-- DIS
      60     317.48660185     317.48754822      -2.981E-06     11.60    <-- DIS
      61     317.48482946     317.48579619      -3.045E-06     11.80    <-- DIS
      62     317.48313988     317.48412381      -3.099E-06     12.00    <-- DIS
      63     317.48152854     317.48252679      -3.144E-06     12.19    <-- DIS
      64     317.47999116     317.48100112      -3.181E-06     12.39    <-- DIS
      65     317.47852377     317.47954305      -3.211E-06     12.59    <-- DIS
      66     317.47712265     317.47814907      -3.233E-06     12.79    <-- DIS
      67     317.47578430     317.47681591      -3.249E-06     12.98    <-- DIS
      68     317.47450548     317.47554047      -3.260E-06     13.18    <-- DIS
      69     317.47328311     317.47431985      -3.266E-06     13.39    <-- DIS
      70     317.47211434     317.47315134      -3.266E-06     13.58    <-- DIS
      71     317.47099647     317.47203237      -3.263E-06     13.78    <-- DIS
      72     317.46992695     317.47096053      -3.256E-06     13.98    <-- DIS
      73     317.46890341     317.46993354      -3.245E-06     14.18    <-- DIS
      74     317.46792359     317.46894926      -3.231E-06     14.37    <-- DIS
      75     317.46698537     317.46800566      -3.214E-06     14.57    <-- DIS
      76     317.46608676     317.46710083      -3.194E-06     14.77    <-- DIS
      77     317.46522586     317.46623297      -3.172E-06     14.97    <-- DIS
      78     317.46440089     317.46540035      -3.148E-06     15.16    <-- DIS
      79     317.46361017     317.46460136      -3.122E-06     15.36    <-- DIS
      80     317.46285210     317.46383448      -3.094E-06     15.56    <-- DIS
      81     317.46212518     317.46309823      -3.065E-06     15.76    <-- DIS
      82     317.46142796     317.46239126      -3.034E-06     15.96    <-- DIS
      83     317.46075909     317.46171224      -3.002E-06     16.16    <-- DIS
      84     317.46011730     317.46105995      -2.969E-06     16.35    <-- DIS
      85     317.45950136     317.46043320      -2.935E-06     16.55    <-- DIS
      86     317.45891011     317.45983087      -2.900E-06     16.75    <-- DIS
      87     317.45834246     317.45925190      -2.865E-06     16.95    <-- DIS
      88     317.45779737     317.45869529      -2.828E-06     17.14    <-- DIS
      89     317.45727383     317.45816006      -2.792E-06     17.34    <-- DIS
      90     317.45677092     317.45764531      -2.754E-06     17.54    <-- DIS
      91     317.45628773     317.45715017      -2.717E-06     17.74    <-- DIS
      92     317.45582341     317.45667379      -2.679E-06     17.94    <-- DIS
      93     317.45537714     317.45621540      -2.641E-06     18.14    <-- DIS
      94     317.45494817     317.45577425      -2.602E-06     18.34    <-- DIS
      95     317.45453574     317.45534960      -2.564E-06     18.53    <-- DIS
      96     317.45413917     317.45494079      -2.525E-06     18.73    <-- DIS
      97     317.45375777     317.45454715      -2.487E-06     18.93    <-- DIS
      98     317.45339092     317.45416807      -2.448E-06     19.13    <-- DIS
      99     317.45303800     317.45380295      -2.410E-06     19.33    <-- DIS
     100     317.45269844     317.45345122      -2.371E-06     19.52    <-- DIS
     101     317.45237168     317.45311233      -2.333E-06     19.72    <-- DIS
     102     317.45205720     317.45278579      -2.295E-06     19.92    <-- DIS
     103     317.45175448     317.45247108      -2.257E-06     20.11    <-- DIS
     104     317.45146306     317.45216773      -2.220E-06     20.31    <-- DIS
     105     317.45118247     317.45187530      -2.182E-06     20.51    <-- DIS
     106     317.45091227     317.45159335      -2.145E-06     20.70    <-- DIS
     107     317.45065204     317.45132146      -2.109E-06     20.90    <-- DIS
     108     317.45040138     317.45105925      -2.072E-06     21.09    <-- DIS
     109     317.45015990     317.45080634      -2.036E-06     21.29    <-- DIS
     110     317.44992725     317.45056235      -2.001E-06     21.49    <-- DIS
     111     317.44970306     317.45032695      -1.965E-06     21.68    <-- DIS
     112     317.44948701     317.45009981      -1.930E-06     21.88    <-- DIS
     113     317.44927876     317.44988059      -1.896E-06     22.07    <-- DIS
     114     317.44907803     317.44966901      -1.862E-06     22.27    <-- DIS
     115     317.44888450     317.44946477      -1.828E-06     22.47    <-- DIS
     116     317.44869790     317.44926759      -1.795E-06     22.66    <-- DIS
     117     317.44851796     317.44907721      -1.762E-06     22.86    <-- DIS
     118     317.44834442     317.44889335      -1.729E-06     23.06    <-- DIS
     119     317.44817703     317.44871579      -1.697E-06     23.25    <-- DIS
     120     317.44801555     317.44854428      -1.666E-06     23.45    <-- DIS
     121     317.44785977     317.44837860      -1.634E-06     23.65    <-- DIS
     122     317.44770945     317.44821852      -1.604E-06     23.85    <-- DIS
     123     317.44756440     317.44806385      -1.573E-06     24.04    <-- DIS
     124     317.44742440     317.44791438      -1.543E-06     24.24    <-- DIS
     125     317.44728928     317.44776992      -1.514E-06     24.43    <-- DIS
     126     317.44715884     317.44763028      -1.485E-06     24.63    <-- DIS
     127     317.44703291     317.44749529      -1.457E-06     24.83    <-- DIS
     128     317.44691132     317.44736479      -1.428E-06     25.02    <-- DIS
     129     317.44679390     317.44723859      -1.401E-06     25.22    <-- DIS
     130     317.44668051     317.44711656      -1.374E-06     25.42    <-- DIS
     131     317.44657099     317.44699853      -1.347E-06     25.61    <-- DIS
     132     317.44646519     317.44688437      -1.320E-06     25.81    <-- DIS
     133     317.44636298     317.44677394      -1.295E-06     26.00    <-- DIS
     134     317.44626423     317.44666710      -1.269E-06     26.20    <-- DIS
     135     317.44616881     317.44656372      -1.244E-06     26.40    <-- DIS
     136     317.44607660     317.44646368      -1.219E-06     26.59    <-- DIS
     137     317.44598747     317.44636686      -1.195E-06     26.79    <-- DIS
     138     317.44590133     317.44627316      -1.171E-06     26.98    <-- DIS
     139     317.44581805     317.44618245      -1.148E-06     27.18    <-- DIS
     140     317.44573754     317.44609463      -1.125E-06     27.38    <-- DIS
     141     317.44565969     317.44600961      -1.102E-06     27.57    <-- DIS
     142     317.44558442     317.44592728      -1.080E-06     27.77    <-- DIS
     143     317.44551162     317.44584755      -1.058E-06     27.97    <-- DIS
     144     317.44544121     317.44577034      -1.037E-06     28.16    <-- DIS
     145     317.44537310     317.44569554      -1.016E-06     28.36    <-- DIS
     146     317.44530721     317.44562309      -9.951E-07     28.55    <-- DIS
     147     317.44524346     317.44555290      -9.748E-07     28.75    <-- DIS
     148     317.44518178     317.44548489      -9.548E-07     28.95    <-- DIS
     149     317.44512209     317.44541899      -9.353E-07     29.14    <-- DIS
     150     317.44506433     317.44535512      -9.160E-07     29.34    <-- DIS
     151     317.44500842     317.44529322      -8.972E-07     29.54    <-- DIS
     152     317.44495430     317.44523323      -8.786E-07     29.73    <-- DIS
     153     317.44490191     317.44517506      -8.605E-07     29.93    <-- DIS
     154     317.44485119     317.44511868      -8.426E-07     30.12    <-- DIS
     155     317.44480208     317.44506400      -8.251E-07     30.32    <-- DIS
     156     317.44475452     317.44501099      -8.079E-07     30.52    <-- DIS
     157     317.44470846     317.44495958      -7.911E-07     30.71    <-- DIS
     158     317.44466385     317.44490972      -7.745E-07     30.91    <-- DIS
     159     317.44462064     317.44486135      -7.583E-07     31.11    <-- DIS
     160     317.44457878     317.44481444      -7.424E-07     31.31    <-- DIS
     161     317.44453822     317.44476892      -7.267E-07     31.50    <-- DIS
     162     317.44449892     317.44472476      -7.114E-07     31.70    <-- DIS
     163     317.44446085     317.44468191      -6.964E-07     31.89    <-- DIS
     164     317.44442395     317.44464033      -6.816E-07     32.09    <-- DIS
     165     317.44438818     317.44459997      -6.672E-07     32.29    <-- DIS
     166     317.44435352     317.44456080      -6.530E-07     32.48    <-- DIS
     167     317.44431991     317.44452278      -6.391E-07     32.68    <-- DIS
     168     317.44428733     317.44448587      -6.254E-07     32.87    <-- DIS
     169     317.44425575     317.44445004      -6.121E-07     33.07    <-- DIS
     170     317.44422512     317.44441525      -5.989E-07     33.27    <-- DIS
     171     317.44419542     317.44438146      -5.861E-07     33.46    <-- DIS
     172     317.44416661     317.44434865      -5.735E-07     33.66    <-- DIS
     173     317.44413867     317.44431679      -5.611E-07     33.86    <-- DIS
     174     317.44411157     317.44428584      -5.490E-07     34.05    <-- DIS
     175     317.44408528     317.44425578      -5.371E-07     34.25    <-- DIS
     176     317.44405978     317.44422657      -5.254E-07     34.45    <-- DIS
     177     317.44403503     317.44419820      -5.140E-07     34.64    <-- DIS
     178     317.44401102     317.44417063      -5.028E-07     34.84    <-- DIS
     179     317.44398771     317.44414384      -4.918E-07     35.03    <-- DIS
     180     317.44396510     317.44411781      -4.811E-07     35.23    <-- DIS
     181     317.44394315     317.44409251      -4.705E-07     35.43    <-- DIS
     182     317.44392184     317.44406792      -4.602E-07     35.62    <-- DIS
     183     317.44390115     317.44404402      -4.500E-07     35.82    <-- DIS
     184     317.44388107     317.44402078      -4.401E-07     36.01    <-- DIS
     185     317.44386157     317.44399819      -4.304E-07     36.21    <-- DIS
     186     317.44384264     317.44397623      -4.208E-07     36.41    <-- DIS
     187     317.44382425     317.44395488      -4.115E-07     36.60    <-- DIS
     188     317.44380639     317.44393411      -4.023E-07     36.80    <-- DIS
     189     317.44378905     317.44391392      -3.934E-07     36.99    <-- DIS
     190     317.44377220     317.44389428      -3.846E-07     37.19    <-- DIS
     191     317.44375583     317.44387517      -3.759E-07     37.39    <-- DIS
     192     317.44373993     317.44385659      -3.675E-07     37.58    <-- DIS
     193     317.44372449     317.44383852      -3.592E-07     37.78    <-- DIS
     194     317.44370948     317.44382093      -3.511E-07     37.98    <-- DIS
     195     317.44369489     317.44380382      -3.432E-07     38.17    <-- DIS
     196     317.44368071     317.44378718      -3.354E-07     38.37    <-- DIS
     197     317.44366694     317.44377098      -3.277E-07     38.57    <-- DIS
     198     317.44365354     317.44375521      -3.203E-07     38.76    <-- DIS
     199     317.44364053     317.44373987      -3.130E-07     38.96    <-- DIS
     200     317.44362787     317.44372494      -3.058E-07     39.15    <-- DIS
     201     317.44361557     317.44371041      -2.988E-07     39.35    <-- DIS
     202     317.44360361     317.44369626      -2.919E-07     39.55    <-- DIS
     203     317.44359197     317.44368249      -2.851E-07     39.74    <-- DIS
     204     317.44358066     317.44366908      -2.785E-07     39.94    <-- DIS
     205     317.44356966     317.44365602      -2.720E-07     40.13    <-- DIS
     206     317.44355896     317.44364331      -2.657E-07     40.33    <-- DIS
     207     317.44354856     317.44363093      -2.595E-07     40.53    <-- DIS
     208     317.44353843     317.44361888      -2.534E-07     40.73    <-- DIS
     209     317.44352859     317.44360714      -2.475E-07     40.92    <-- DIS
     210     317.44351901     317.44359571      -2.416E-07     41.12    <-- DIS
     211     317.44350969     317.44358457      -2.359E-07     41.32    <-- DIS
     212     317.44350062     317.44357373      -2.303E-07     41.51    <-- DIS
     213     317.44349179     317.44356316      -2.248E-07     41.71    <-- DIS
     214     317.44348320     317.44355287      -2.195E-07     41.90    <-- DIS
     215     317.44347484     317.44354284      -2.142E-07     42.10    <-- DIS
     216     317.44346671     317.44353307      -2.091E-07     42.30    <-- DIS
     217     317.44345879     317.44352355      -2.040E-07     42.49    <-- DIS
     218     317.44345108     317.44351427      -1.991E-07     42.69    <-- DIS
     219     317.44344357     317.44350523      -1.942E-07     42.88    <-- DIS
     220     317.44343626     317.44349642      -1.895E-07     43.08    <-- DIS
     221     317.44342915     317.44348783      -1.849E-07     43.28    <-- DIS
     222     317.44342222     317.44347947      -1.803E-07     43.48    <-- DIS
     223     317.44341548     317.44347131      -1.759E-07     43.68    <-- DIS
     224     317.44340891     317.44346336      -1.715E-07     43.87    <-- DIS
     225     317.44340251     317.44345561      -1.673E-07     44.07    <-- DIS
     226     317.44339628     317.44344805      -1.631E-07     44.27    <-- DIS
     227     317.44339021     317.44344068      -1.590E-07     44.47    <-- DIS
     228     317.44338430     317.44343350      -1.550E-07     44.66    <-- DIS
     229     317.44337854     317.44342650      -1.511E-07     44.86    <-- DIS
     230     317.44337293     317.44341967      -1.472E-07     45.06    <-- DIS
     231     317.44336746     317.44341301      -1.435E-07     45.26    <-- DIS
     232     317.44336213     317.44340652      -1.398E-07     45.45    <-- DIS
     233     317.44335694     317.44340018      -1.362E-07     45.65    <-- DIS
     234     317.44335189     317.44339401      -1.327E-07     45.85    <-- DIS
     235     317.44334696     317.44338798      -1.292E-07     46.05    <-- DIS
     236     317.44334215     317.44338211      -1.259E-07     46.24    <-- DIS
     237     317.44333747     317.44337637      -1.226E-07     46.44    <-- DIS
     238     317.44333290     317.44337078      -1.193E-07     46.64    <-- DIS
     239     317.44332846     317.44336533      -1.162E-07     46.84    <-- DIS
     240     317.44332412     317.44336001      -1.131E-07     47.03    <-- DIS
     241     317.44331989     317.44335482      -1.100E-07     47.23    <-- DIS
     242     317.44331577     317.44334975      -1.071E-07     47.43    <-- DIS
     243     317.44331175     317.44334481      -1.042E-07     47.63    <-- DIS
     244     317.44330783     317.44333999      -1.013E-07     47.82    <-- DIS
     245     317.44330401     317.44333528      -9.853E-08     48.02    <-- DIS
     246     317.44330028     317.44333069      -9.580E-08     48.21    <-- DIS
     247     317.44329665     317.44332621      -9.314E-08     48.41    <-- DIS
     248     317.44329310     317.44332184      -9.053E-08     48.61    <-- DIS
     249     317.44328964     317.44331757      -8.798E-08     48.80    <-- DIS
     250     317.44328627     317.44331341      -8.548E-08     49.00    <-- DIS
     251     317.44328298     317.44330934      -8.304E-08     49.20    <-- DIS
     252     317.44327977     317.44330537      -8.065E-08     49.39    <-- DIS
     253     317.44327664     317.44330150      -7.831E-08     49.59    <-- DIS
     254     317.44327358     317.44329772      -7.602E-08     49.78    <-- DIS
     255     317.44327060     317.44329403      -7.378E-08     49.98    <-- DIS
     256     317.44326770     317.44329042      -7.160E-08     50.18    <-- DIS
     257     317.44326486     317.44328690      -6.945E-08     50.37    <-- DIS
     258     317.44326209     317.44328347      -6.736E-08     50.57    <-- DIS
     259     317.44325939     317.44328012      -6.531E-08     50.77    <-- DIS
     260     317.44325675     317.44327684      -6.330E-08     50.96    <-- DIS
     261     317.44325417     317.44327365      -6.134E-08     51.16    <-- DIS
     262     317.44325166     317.44327052      -5.942E-08     51.36    <-- DIS
[...]
  WF centre and spread  102  (  5.169801,  0.979759, -0.129478 )     2.02299355
  WF centre and spread  103  (  5.164138,  0.960281,  0.007601 )     1.82096502
  WF centre and spread  104  (  5.164586,  0.980289,  0.002926 )     1.81317227
  WF centre and spread  105  (  5.164366,  1.050522,  3.459139 )     2.02973961
  WF centre and spread  106  (  5.160343,  1.049223,  3.316733 )     1.81191226
  WF centre and spread  107  (  5.162579,  1.070097,  3.316047 )     1.84564573
  WF centre and spread  108  ( -5.167420,  0.987120, -0.127573 )     2.02180205
  WF centre and spread  109  ( -5.163853,  0.962982,  0.007338 )     1.82373337
  WF centre and spread  110  ( -5.164707,  0.974690,  0.002320 )     1.81739977
  WF centre and spread  111  ( -5.162502,  1.041653,  3.452726 )     2.04038699
  WF centre and spread  112  ( -5.161443,  1.046596,  3.313207 )     1.82523432
  WF centre and spread  113  ( -5.156694,  1.074741,  3.318913 )     1.84175992
  WF centre and spread  114  ( -1.736067,  1.005803, -0.071053 )     2.03961756
  WF centre and spread  115  ( -1.727744,  0.984381,  0.063838 )     1.81011133
  WF centre and spread  116  ( -1.730490,  1.005109,  0.058297 )     1.81648433
  WF centre and spread  117  ( -1.721593,  0.972178,  3.476447 )     2.04402828
  WF centre and spread  118  ( -1.726905,  0.972556,  3.333678 )     1.81473753
  WF centre and spread  119  ( -1.726803,  1.004272,  3.343373 )     1.86849497
  WF centre and spread  120  ( -3.429232,  3.989566, -0.121021 )     2.03311395
  WF centre and spread  121  ( -3.422807,  3.976097,  0.013783 )     1.81451850
  WF centre and spread  122  ( -3.426532,  4.000016,  0.001821 )     1.81335947
  WF centre and spread  123  ( -3.501707,  3.947809,  3.456167 )     2.05175350
  WF centre and spread  124  ( -3.494549,  3.931875,  3.321642 )     1.83061197
  WF centre and spread  125  ( -3.506190,  3.962786,  3.321893 )     1.83384079
  WF centre and spread  126  (  1.738338, -4.973892, -0.111505 )     2.03715703
  WF centre and spread  127  (  1.733212, -4.972186,  0.005261 )     1.79969902
  WF centre and spread  128  (  1.737100, -4.934730,  0.015440 )     1.82965618
  WF centre and spread  129  (  1.532815, -4.895017,  3.540411 )     2.12092608
  WF centre and spread  130  (  1.956099, -4.986770,  3.444466 )     1.67431543
  WF centre and spread  131  (  1.686585, -5.191713,  3.405807 )     1.75551122
  WF centre and spread  132  ( -0.009181, -2.007564, -0.050356 )     2.04504347
  WF centre and spread  133  ( -0.000261, -2.015692,  0.068657 )     1.81374111
  WF centre and spread  134  ( -0.005419, -1.972837,  0.069764 )     1.81490761
  WF centre and spread  135  (  0.025804, -2.193960,  3.512397 )     2.14962528
  WF centre and spread  136  ( -0.026369, -1.986124,  3.374277 )     1.77530867
  WF centre and spread  137  ( -0.024194, -1.806630,  3.486895 )     1.74769928
  WF centre and spread  138  ( -3.491950, -2.022170,  0.013137 )     2.06832431
  WF centre and spread  139  ( -3.488508, -2.037602,  0.130383 )     1.83582468
  WF centre and spread  140  ( -3.487910, -1.990336,  0.127316 )     1.81717865
  WF centre and spread  141  ( -3.408907, -2.173515,  3.560805 )     2.11566660
  WF centre and spread  142  ( -3.385509, -1.952849,  3.427871 )     1.76007522
  WF centre and spread  143  ( -3.382932, -1.798891,  3.554276 )     1.80741421
  WF centre and spread  144  (  0.002899,  9.885928,  0.089102 )     2.06035418
  WF centre and spread  145  (  0.006110,  9.892958,  0.181637 )     1.81889678
  WF centre and spread  146  (  0.006920,  9.925856,  0.190873 )     1.82620692
  WF centre and spread  147  (  0.008978, 10.313947,  3.634340 )     1.87245306
  WF centre and spread  148  ( -0.004975, 10.213665,  3.528794 )     1.79036966
  WF centre and spread  149  ( -0.006085, 10.018858,  3.593146 )     2.04283374
  WF centre and spread  150  (  3.492042, -2.026596, -0.000922 )     2.03949789
  WF centre and spread  151  (  3.482999, -2.030156,  0.114466 )     1.80218482
  WF centre and spread  152  (  3.487759, -1.996381,  0.120479 )     1.81034215
  WF centre and spread  153  (  3.392635, -1.972600,  3.537949 )     2.02784629
  WF centre and spread  154  (  3.417194, -1.989387,  3.402833 )     1.85081842
  WF centre and spread  155  (  3.392814, -1.957460,  3.413678 )     1.81657473
  WF centre and spread  156  (  0.003515, -7.949623, -0.190900 )     2.00621513
  WF centre and spread  157  ( -0.001864, -7.967372, -0.061558 )     1.81283140
  WF centre and spread  158  (  0.000580, -7.938201, -0.061722 )     1.82682133
  WF centre and spread  159  ( -0.004209, -7.952580,  3.441703 )     2.02736420
  WF centre and spread  160  ( -0.000069, -7.961067,  3.308882 )     1.82460339
  WF centre and spread  161  ( -0.002838, -7.912757,  3.312834 )     1.83083690
  WF centre and spread  162  ( -1.738463, -4.968289, -0.099874 )     2.06389651
  WF centre and spread  163  ( -1.735981, -4.976434,  0.019820 )     1.81770749
  WF centre and spread  164  ( -1.741577, -4.945110,  0.028633 )     1.84447119
  WF centre and spread  165  ( -1.866432, -4.928579,  3.511496 )     1.98908034
  WF centre and spread  166  ( -1.407999, -4.908131,  3.548656 )     2.01030193
  WF centre and spread  167  ( -1.667133, -5.180011,  3.424777 )     1.71446401
  WF centre and spread  168  (  1.662471,  6.983229,  0.074469 )     2.04714803
  WF centre and spread  169  (  1.681193,  6.965939,  0.191915 )     1.82011637
  WF centre and spread  170  (  1.691313,  7.010359,  0.191915 )     1.82484525
  WF centre and spread  171  (  2.137350,  6.911330,  3.728578 )     2.02563002
  WF centre and spread  172  (  1.514851,  6.984815,  3.769463 )     2.01177379
  WF centre and spread  173  (  1.915251,  6.561827,  3.658530 )     1.69782709
  WF centre and spread  174  (  3.434302,  4.000619, -0.123182 )     2.02417629
  WF centre and spread  175  (  3.414075,  3.981491,  0.012342 )     1.82437204
  WF centre and spread  176  (  3.423519,  4.006555,  0.012559 )     1.84083950
  WF centre and spread  177  (  3.500443,  3.954454,  3.457171 )     2.02732668
  WF centre and spread  178  (  3.484804,  3.937511,  3.323130 )     1.83667788
  WF centre and spread  179  (  3.505403,  3.981228,  3.334011 )     1.83976351
  WF centre and spread  180  ( -0.007332,  4.043238, -0.007276 )     2.04956655
  WF centre and spread  181  ( -0.002623,  4.020753,  0.127405 )     1.81786711
  WF centre and spread  182  ( -0.002149,  4.048151,  0.113505 )     1.81935394
  WF centre and spread  183  (  0.012549,  3.934881,  3.543109 )     2.04308045
  WF centre and spread  184  ( -0.002969,  3.913143,  3.408587 )     1.81763768
  WF centre and spread  185  (  0.002041,  3.986141,  3.389378 )     1.87293341
  WF centre and spread  186  ( -1.677336,  6.983247,  0.083443 )     2.06845464
  WF centre and spread  187  ( -1.687124,  6.966211,  0.191954 )     1.83098097
  WF centre and spread  188  ( -1.687426,  7.011425,  0.188407 )     1.83147867
  WF centre and spread  189  ( -1.813812,  6.913743,  3.583525 )     2.04087728
  WF centre and spread  190  ( -2.074493,  6.861675,  3.608875 )     1.85925763
  WF centre and spread  191  ( -1.942170,  6.759499,  3.557387 )     1.80057949
  Sum of centres and spreads (-30.175266, 23.737739,365.930043 )   345.50207117
 
         Spreads (Ang^2)       Omega I      =   317.443135010
        ================       Omega D      =     0.006917933
                               Omega OD     =    28.052018414
    Final Spread (Ang^2)       Omega Total  =   345.502071357
 ------------------------------------------------------------------------------
 Final centres (translated to home cell for writing xyz file)
  WF centre    1  (  0.019112,  8.005143,  4.724609 )
  WF centre    2  ( -0.011260,  7.950650,  3.967195 )
  WF centre    3  (  0.012418,  7.940077,  3.982628 )
  WF centre    4  ( -0.041580,  7.823469,  3.851108 )
  WF centre    5  (  0.074302,  8.105670,  3.886341 )
  WF centre    6  ( -3.396771, -3.927343,  4.370888 )
  WF centre    7  ( -3.530918, -4.003299,  3.914891 )
  WF centre    8  ( -3.534879, -4.004167,  3.895198 )
  WF centre    9  ( -3.426321, -4.110062,  3.900216 )
  WF centre   10  ( -3.685684, -3.859009,  3.932496 )
  WF centre   11  (  0.163124, -3.957623,  4.453901 )
  WF centre   12  (  0.282803, -4.009244,  3.952239 )
  WF centre   13  (  0.227806, -3.989882,  3.963362 )
  WF centre   14  (  0.161216, -4.097950,  3.861327 )
  WF centre   15  (  0.366594, -3.873220,  3.868476 )
  WF centre   16  (  0.040005, -0.022012,  1.701698 )
  WF centre   17  ( -0.000446, -0.005404,  1.691844 )
  WF centre   18  (  0.002549, -0.031614,  1.727727 )
  WF centre   19  (  0.016713,  0.111166,  1.699804 )
  WF centre   20  ( -0.071597, -0.126608,  1.697907 )
  WF centre   21  (  3.406390, -0.035754,  1.708347 )
  WF centre   22  (  3.469563, -0.001072,  1.698119 )
  WF centre   23  (  3.469687,  0.001894,  1.710680 )
  WF centre   24  (  3.434549,  0.119023,  1.700385 )
  WF centre   25  (  3.580317, -0.100871,  1.708759 )
  WF centre   26  (  6.844601,  0.020305,  1.685747 )
  WF centre   27  (  0.001513,-11.891680,  1.682654 )
  WF centre   28  ( -0.000727, 11.954189,  1.723627 )
  WF centre   29  ( -0.016791,-11.767648,  1.677528 )
  WF centre   30  ( -6.812526, -0.072466,  1.683322 )
  WF centre   31  ( -3.412893, -0.030951,  1.714749 )
  WF centre   32  ( -3.472430, -0.002426,  1.698023 )
  WF centre   33  ( -3.466884, -0.040189,  1.746331 )
  WF centre   34  ( -3.442856,  0.114832,  1.708741 )
  WF centre   35  ( -3.565711, -0.112895,  1.714766 )
  WF centre   36  ( -5.166256,  2.990371,  1.612182 )
  WF centre   37  (  1.690161, -8.937309,  1.625157 )
  WF centre   38  (  1.692867, -8.928217,  1.626552 )
  WF centre   39  (  1.706122, -8.786538,  1.622335 )
  WF centre   40  (  1.641561, -9.051964,  1.615034 )
  WF centre   41  (  0.016356, -6.005490,  1.613802 )
  WF centre   42  ( -0.008091, -5.997218,  1.662653 )
  WF centre   43  ( -0.006486, -5.981091,  1.641838 )
  WF centre   44  (  0.009689, -5.867415,  1.644306 )
  WF centre   45  ( -0.038272, -6.106839,  1.631705 )
  WF centre   46  ( -1.751472, -3.017632,  1.722354 )
  WF centre   47  ( -1.741377, -3.018982,  1.727557 )
  WF centre   48  ( -1.731971, -3.011625,  1.725718 )
  WF centre   49  ( -1.750223, -2.886340,  1.734078 )
  WF centre   50  ( -1.695178, -3.156089,  1.749376 )
  WF centre   51  ( -5.132582, -3.002159,  1.872161 )
  WF centre   52  (  1.715317,  8.933918,  1.857419 )
  WF centre   53  (  1.733729,  8.946147,  1.887578 )
  WF centre   54  ( -5.102734, -2.885074,  1.880094 )
  WF centre   55  (  1.538968,  8.819775,  1.964277 )
  WF centre   56  (  5.118474, -3.009671,  1.860413 )
  WF centre   57  ( -1.697603,  8.943832,  1.873268 )
  WF centre   58  ( -1.730960,  8.949806,  1.890953 )
  WF centre   59  (  5.138734, -2.879851,  1.853612 )
  WF centre   60  ( -1.580879,  8.845613,  1.903929 )
  WF centre   61  (  1.671250, -3.041208,  1.711256 )
  WF centre   62  (  1.725985, -3.017197,  1.726685 )
  WF centre   63  (  1.730730, -3.003256,  1.717428 )
  WF centre   64  (  1.694779, -2.886089,  1.717588 )
  WF centre   65  (  1.826342, -3.113879,  1.725130 )
  WF centre   66  (  5.146409,  2.979939,  1.616518 )
  WF centre   67  ( -1.691441, -8.937648,  1.614092 )
  WF centre   68  ( -1.693045, -8.926158,  1.629071 )
  WF centre   69  ( -1.715211, -8.794478,  1.612776 )
  WF centre   70  ( -1.604428, -9.034672,  1.617955 )
  WF centre   71  ( -3.414686, -5.993859,  1.681106 )
  WF centre   72  ( -3.397564, -5.985699,  1.737439 )
  WF centre   73  ( -3.397978, -5.960604,  1.710881 )
  WF centre   74  ( -3.411460, -5.848971,  1.714018 )
  WF centre   75  ( -3.370066, -6.091292,  1.692126 )
  WF centre   76  ( -0.019177,  5.957055,  1.851971 )
  WF centre   77  (  0.010419,  5.964978,  1.901922 )
  WF centre   78  (  0.004778,  6.059605,  1.939215 )
  WF centre   79  ( -0.020307,  6.114004,  1.875952 )
  WF centre   80  (  0.052730,  5.866247,  1.856758 )
  WF centre   81  (  1.753574,  2.998715,  1.703507 )
  WF centre   82  (  1.738192,  3.002712,  1.704258 )
  WF centre   83  (  1.740200,  3.011652,  1.711887 )
  WF centre   84  (  1.741092,  3.158789,  1.708561 )
  WF centre   85  (  1.706959,  2.883574,  1.701233 )
  WF centre   86  ( -1.726556,  2.999432,  1.704321 )
  WF centre   87  ( -1.735316,  3.007825,  1.711792 )
  WF centre   88  ( -1.735544,  3.009869,  1.715268 )
  WF centre   89  ( -1.729056,  3.162319,  1.715584 )
  WF centre   90  ( -1.753840,  2.878797,  1.701005 )
  WF centre   91  ( -3.467025,  5.937479,  1.670494 )
  WF centre   92  (  3.413739, -5.985302,  1.741073 )
  WF centre   93  (  3.401026, -5.980751,  1.703860 )
  WF centre   94  (  3.411536, -5.851750,  1.685074 )
  WF centre   95  ( -3.520797,  5.832346,  1.676453 )
  WF centre   96  (  1.729706,  1.006724, -0.071888 )
  WF centre   97  (  1.727263,  0.988492,  0.061981 )
  WF centre   98  (  1.729086,  1.003326,  0.057681 )
  WF centre   99  (  1.721723,  0.975706,  3.478684 )
  WF centre  100  (  1.722183,  0.984047,  3.336923 )
  WF centre  101  (  1.721296,  1.004067,  3.336041 )
  WF centre  102  (  5.169801,  0.979759, -0.129478 )
  WF centre  103  (  5.164138,  0.960281,  0.007601 )
  WF centre  104  (  5.164586,  0.980289,  0.002926 )
  WF centre  105  (  5.164366,  1.050522,  3.459139 )
  WF centre  106  (  5.160343,  1.049223,  3.316733 )
  WF centre  107  (  5.162579,  1.070097,  3.316047 )
  WF centre  108  ( -5.167420,  0.987120, -0.127573 )
  WF centre  109  ( -5.163853,  0.962982,  0.007338 )
  WF centre  110  ( -5.164707,  0.974690,  0.002320 )
  WF centre  111  ( -5.162502,  1.041653,  3.452726 )
  WF centre  112  ( -5.161443,  1.046596,  3.313207 )
  WF centre  113  ( -5.156694,  1.074741,  3.318913 )
  WF centre  114  ( -1.736067,  1.005803, -0.071053 )
  WF centre  115  ( -1.727744,  0.984381,  0.063838 )
  WF centre  116  ( -1.730490,  1.005109,  0.058297 )
  WF centre  117  ( -1.721593,  0.972178,  3.476447 )
  WF centre  118  ( -1.726905,  0.972556,  3.333678 )
  WF centre  119  ( -1.726803,  1.004272,  3.343373 )
  WF centre  120  ( -3.429232,  3.989566, -0.121021 )
  WF centre  121  ( -3.422807,  3.976097,  0.013783 )
  WF centre  122  ( -3.426532,  4.000016,  0.001821 )
  WF centre  123  ( -3.501707,  3.947809,  3.456167 )
  WF centre  124  ( -3.494549,  3.931875,  3.321642 )
  WF centre  125  ( -3.506190,  3.962786,  3.321893 )
  WF centre  126  (  1.738338, -4.973892, -0.111505 )
  WF centre  127  (  1.733212, -4.972186,  0.005261 )
  WF centre  128  (  1.737100, -4.934730,  0.015440 )
  WF centre  129  (  1.532815, -4.895017,  3.540411 )
  WF centre  130  (  1.956099, -4.986770,  3.444466 )
  WF centre  131  (  1.686585, -5.191713,  3.405807 )
  WF centre  132  ( -0.009181, -2.007564, -0.050356 )
  WF centre  133  ( -0.000261, -2.015692,  0.068657 )
  WF centre  134  ( -0.005419, -1.972837,  0.069764 )
  WF centre  135  (  0.025804, -2.193960,  3.512397 )
  WF centre  136  ( -0.026369, -1.986124,  3.374277 )
  WF centre  137  ( -0.024194, -1.806630,  3.486895 )
  WF centre  138  ( -3.491950, -2.022170,  0.013137 )
  WF centre  139  ( -3.488508, -2.037602,  0.130383 )
  WF centre  140  ( -3.487910, -1.990336,  0.127316 )
  WF centre  141  ( -3.408907, -2.173515,  3.560805 )
  WF centre  142  ( -3.385509, -1.952849,  3.427871 )
  WF centre  143  ( -3.382932, -1.798891,  3.554276 )
  WF centre  144  (  0.002899,  9.885928,  0.089102 )
  WF centre  145  (  0.006110,  9.892958,  0.181637 )
  WF centre  146  (  0.006920,  9.925856,  0.190873 )
  WF centre  147  (  0.008978, 10.313947,  3.634340 )
  WF centre  148  ( -0.004975, 10.213665,  3.528794 )
  WF centre  149  ( -0.006085, 10.018858,  3.593146 )
  WF centre  150  (  3.492042, -2.026596, -0.000922 )
  WF centre  151  (  3.482999, -2.030156,  0.114466 )
  WF centre  152  (  3.487759, -1.996381,  0.120479 )
  WF centre  153  (  3.392635, -1.972600,  3.537949 )
  WF centre  154  (  3.417194, -1.989387,  3.402833 )
  WF centre  155  (  3.392814, -1.957460,  3.413678 )
  WF centre  156  (  0.003515, -7.949623, -0.190900 )
  WF centre  157  ( -0.001864, -7.967372, -0.061558 )
  WF centre  158  (  0.000580, -7.938201, -0.061722 )
  WF centre  159  ( -0.004209, -7.952580,  3.441703 )
  WF centre  160  ( -0.000069, -7.961067,  3.308882 )
  WF centre  161  ( -0.002838, -7.912757,  3.312834 )
  WF centre  162  ( -1.738463, -4.968289, -0.099874 )
  WF centre  163  ( -1.735981, -4.976434,  0.019820 )
  WF centre  164  ( -1.741577, -4.945110,  0.028633 )
  WF centre  165  ( -1.866432, -4.928579,  3.511496 )
  WF centre  166  ( -1.407999, -4.908131,  3.548656 )
  WF centre  167  ( -1.667133, -5.180011,  3.424777 )
  WF centre  168  (  1.662471,  6.983229,  0.074469 )
  WF centre  169  (  1.681193,  6.965939,  0.191915 )
  WF centre  170  (  1.691313,  7.010359,  0.191915 )
  WF centre  171  (  2.137350,  6.911330,  3.728578 )
  WF centre  172  (  1.514851,  6.984815,  3.769463 )
  WF centre  173  (  1.915251,  6.561827,  3.658530 )
  WF centre  174  (  3.434302,  4.000619, -0.123182 )
  WF centre  175  (  3.414075,  3.981491,  0.012342 )
  WF centre  176  (  3.423519,  4.006555,  0.012559 )
  WF centre  177  (  3.500443,  3.954454,  3.457171 )
  WF centre  178  (  3.484804,  3.937511,  3.323130 )
  WF centre  179  (  3.505403,  3.981228,  3.334011 )
  WF centre  180  ( -0.007332,  4.043238, -0.007276 )
  WF centre  181  ( -0.002623,  4.020753,  0.127405 )
  WF centre  182  ( -0.002149,  4.048151,  0.113505 )
  WF centre  183  (  0.012549,  3.934881,  3.543109 )
  WF centre  184  ( -0.002969,  3.913143,  3.408587 )
  WF centre  185  (  0.002041,  3.986141,  3.389378 )
  WF centre  186  ( -1.677336,  6.983247,  0.083443 )
  WF centre  187  ( -1.687124,  6.966211,  0.191954 )
  WF centre  188  ( -1.687426,  7.011425,  0.188407 )
  WF centre  189  ( -1.813812,  6.913743,  3.583525 )
  WF centre  190  ( -2.074493,  6.861675,  3.608875 )
  WF centre  191  ( -1.942170,  6.759499,  3.557387 )
 ------------------------------------------------------------------------------
 

 Wannier centres written to file 3cr.down_centres.xyz
  
  Omega Invariant:   1-s^2 =   317.443135010 (Ang^2)
                   -2log s =   358.535938475 (Ang^2)
                    acos^2 =   343.263932728 (Ang^2)
 Time for wannierise           38.806 (sec)

 Writing checkpoint file 3cr.down.chk... done

 *---------------------------------------------------------------------------*
 |                               PLOTTING                                    |
 *---------------------------------------------------------------------------*
 
    1 lattice points in Wigner-Seitz supercell:

      vector   0   0   0   degeneracy:  1
  tot =        1.000
  mp_grid product =            1
 
 Calculating interpolated band-structure
 
 Time to calculate interpolated band structure       5.934 (sec)
 
 Time for plotting              6.131 (sec)
 Total Execution Time         251.623 (sec)

 *===========================================================================*
 |                             TIMING INFORMATION                            |
 *===========================================================================*
 |    Tag                                                Ncalls      Time (s)|
 |---------------------------------------------------------------------------|
 |kmesh: get                                        :         1         0.013|
 |overlap: allocate                                 :         1         0.003|
 |overlap: read                                     :         1         3.943|
 |dis: main                                         :         1       202.700|
 |wann: main                                        :         1        38.806|
 |plot: main                                        :         1         6.131|
 *---------------------------------------------------------------------------*
 
 All done: wannier90 exiting
