 written on 20Jul2023 at 20:32:20 
         191
           1
    1
    0    0    0    1    1    2.297538   -0.000000
    0    0    0    2    1   -0.000257    0.000000
    0    0    0    3    1   -0.064044    0.000000
    0    0    0    4    1    0.008600    0.000000
    0    0    0    5    1    0.003347   -0.000000
    0    0    0    6    1   -0.226404    0.000000
    0    0    0    7    1    0.187376    0.000000
    0    0    0    8    1    0.152873   -0.000000
    0    0    0    9    1    0.010904    0.000000
    0    0    0   10    1    0.310507    0.000000
    0    0    0   11    1   -0.033506   -0.000000
    0    0    0   12    1   -0.052178    0.000000
    0    0    0   13    1    0.021790    0.000000
    0    0    0   14    1   -0.009312   -0.000000
    0    0    0   15    1   -0.000351    0.000000
    0    0    0   16    1    0.008179    0.000000
    0    0    0   17    1   -0.000490    0.000000
    0    0    0   18    1    0.010220   -0.000000
    0    0    0   19    1    0.002795   -0.000000
    0    0    0   20    1   -0.002457   -0.000000
    0    0    0   21    1    0.014421    0.000000
    0    0    0   22    1    0.019160   -0.000000
    0    0    0   23    1    0.009029   -0.000000
    0    0    0   24    1    0.000010    0.000000
    0    0    0   25    1   -0.018470    0.000000
    0    0    0   26    1    0.050387    0.000000
    0    0    0   27    1   -0.002412   -0.000000
    0    0    0   28    1    0.035225    0.000000
    0    0    0   29    1    0.002264    0.000000
    0    0    0   30    1    0.013891    0.000000
    0    0    0   31    1   -0.002049    0.000000
    0    0    0   32    1   -0.014173   -0.000000
    0    0    0   33    1    0.011380    0.000000
    0    0    0   34    1    0.010041    0.000000
    0    0    0   35    1    0.015744    0.000000
    0    0    0   36    1   -0.006594    0.000000
    0    0    0   37    1   -0.003717   -0.000000
    0    0    0   38    1    0.004277   -0.000000
    0    0    0   39    1   -0.004943    0.000000
    0    0    0   40    1   -0.001565    0.000000
    0    0    0   41    1   -0.010192    0.000000
    0    0    0   42    1    0.023737    0.000000
    0    0    0   43    1    0.011920   -0.000000
    0    0    0   44    1    0.006747    0.000000
    0    0    0   45    1    0.009698    0.000000
    0    0    0   46    1   -0.028775   -0.000000
    0    0    0   47    1   -0.051036   -0.000000
    0    0    0   48    1   -0.035427   -0.000000
    0    0    0   49    1    0.042347    0.000000
    0    0    0   50    1    0.051243    0.000000
    0    0    0   51    1    0.006700   -0.000000
    0    0    0   52    1    0.056877   -0.000000
    0    0    0   53    1    0.019659   -0.000000
    0    0    0   54    1    0.040889    0.000000
    0    0    0   55    1   -0.502207   -0.000000
    0    0    0   56    1    0.084558   -0.000000
    0    0    0   57    1   -0.106437   -0.000000
    0    0    0   58    1    0.064036    0.000000
    0    0    0   59    1    0.026048    0.000000
    0    0    0   60    1    0.396892    0.000000
    0    0    0   61    1    0.007458    0.000000
    0    0    0   62    1    0.014963    0.000000
    0    0    0   63    1   -0.048723    0.000000
    0    0    0   64    1    0.003437   -0.000000
    0    0    0   65    1   -0.017545   -0.000000
    0    0    0   66    1   -0.010622    0.000000
    0    0    0   67    1    0.000359    0.000000
    0    0    0   68    1    0.004541    0.000000
    0    0    0   69    1    0.008591    0.000000
    0    0    0   70    1   -0.009035    0.000000
    0    0    0   71    1    0.052766    0.000000
    0    0    0   72    1   -0.019019    0.000000
    0    0    0   73    1    0.055330    0.000000
    0    0    0   74    1   -0.012225   -0.000000
    0    0    0   75    1   -0.015839   -0.000000
    0    0    0   76    1    0.105969   -0.000000
    0    0    0   77    1   -0.011292   -0.000000
    0    0    0   78    1   -0.317491   -0.000000
    0    0    0   79    1    0.319648    0.000000
    0    0    0   80    1   -0.021711    0.000000
    0    0    0   81    1    0.007625   -0.000000
    0    0    0   82    1    0.001725    0.000000
    0    0    0   83    1    0.009274   -0.000000
    0    0    0   84    1   -0.012079    0.000000
    0    0    0   85    1   -0.006812   -0.000000
    0    0    0   86    1    0.010774    0.000000
    0    0    0   87    1   -0.002364    0.000000
    0    0    0   88    1   -0.004778    0.000000
    0    0    0   89    1   -0.015782   -0.000000
    0    0    0   90    1    0.006280   -0.000000
    0    0    0   91    1    0.030532    0.000000
    0    0    0   92    1   -0.038989    0.000000
    0    0    0   93    1   -0.003124    0.000000
    0    0    0   94    1    0.017814   -0.000000
    0    0    0   95    1    0.002109   -0.000000
    0    0    0   96    1   -0.011975    0.000000
    0    0    0   97    1   -0.011244    0.000000
    0    0    0   98    1   -0.001517   -0.000000
    0    0    0   99    1    0.005539    0.000000
    0    0    0  100    1   -0.000425   -0.000000
    0    0    0  101    1   -0.005124    0.000000
    0    0    0  102    1    0.003821   -0.000000
    0    0    0  103    1   -0.011486   -0.000000
    0    0    0  104    1    0.008742   -0.000000
    0    0    0  105    1   -0.010997    0.000000
    0    0    0  106    1   -0.011982   -0.000000
    0    0    0  107    1    0.041415   -0.000000
    0    0    0  108    1   -0.005104   -0.000000
    0    0    0  109    1    0.009712    0.000000
    0    0    0  110    1    0.008645    0.000000
    0    0    0  111    1   -0.009177    0.000000
    0    0    0  112    1   -0.006578    0.000000
    0    0    0  113    1    0.019910    0.000000
    0    0    0  114    1   -0.007742    0.000000
    0    0    0  115    1    0.008354    0.000000
    0    0    0  116    1    0.001348   -0.000000
    0    0    0  117    1    0.006864   -0.000000
    0    0    0  118    1    0.001764    0.000000
    0    0    0  119    1   -0.015209    0.000000
    0    0    0  120    1   -0.008660   -0.000000
    0    0    0  121    1   -0.013306    0.000000
    0    0    0  122    1   -0.004426   -0.000000
    0    0    0  123    1   -0.004321   -0.000000
    0    0    0  124    1   -0.007844   -0.000000
    0    0    0  125    1   -0.022497   -0.000000
    0    0    0  126    1    0.009938    0.000000
    0    0    0  127    1   -0.013920    0.000000
    0    0    0  128    1    0.008491    0.000000
    0    0    0  129    1    0.021754   -0.000000
    0    0    0  130    1    0.010185   -0.000000
    0    0    0  131    1   -0.025442    0.000000
    0    0    0  132    1   -0.030339   -0.000000
    0    0    0  133    1   -0.001629    0.000000
    0    0    0  134    1    0.015140    0.000000
    0    0    0  135    1   -0.018025   -0.000000
    0    0    0  136    1   -0.006059   -0.000000
    0    0    0  137    1    0.000624   -0.000000
    0    0    0  138    1    0.061958   -0.000000
    0    0    0  139    1   -0.032102   -0.000000
    0    0    0  140    1   -0.017312   -0.000000
    0    0    0  141    1   -0.112015   -0.000000
    0    0    0  142    1    0.129515    0.000000
    0    0    0  143    1    0.008683   -0.000000
    0    0    0  144    1   -0.168480   -0.000000
    0    0    0  145    1   -0.009828    0.000000
    0    0    0  146    1    0.048359   -0.000000
    0    0    0  147    1   -0.174809   -0.000000
    0    0    0  148    1   -0.086226    0.000000
    0    0    0  149    1    0.405449    0.000000
    0    0    0  150    1    0.035399   -0.000000
    0    0    0  151    1    0.019857    0.000000
    0    0    0  152    1   -0.012840   -0.000000
    0    0    0  153    1   -0.078109   -0.000000
    0    0    0  154    1   -0.148650   -0.000000
    0    0    0  155    1    0.046419    0.000000
    0    0    0  156    1   -0.011101   -0.000000
    0    0    0  157    1   -0.001793   -0.000000
    0    0    0  158    1   -0.002813    0.000000
    0    0    0  159    1    0.003587    0.000000
    0    0    0  160    1   -0.002612    0.000000
    0    0    0  161    1    0.012278   -0.000000
    0    0    0  162    1    0.007913   -0.000000
    0    0    0  163    1    0.003304   -0.000000
    0    0    0  164    1    0.021925    0.000000
    0    0    0  165    1    0.056406   -0.000000
    0    0    0  166    1   -0.055154   -0.000000
    0    0    0  167    1    0.021158   -0.000000
    0    0    0  168    1   -0.127666    0.000000
    0    0    0  169    1    0.080420    0.000000
    0    0    0  170    1   -0.023584    0.000000
    0    0    0  171    1   -0.196509    0.000000
    0    0    0  172    1    0.443610    0.000000
    0    0    0  173    1   -0.029495    0.000000
    0    0    0  174    1   -0.006170   -0.000000
    0    0    0  175    1    0.002204    0.000000
    0    0    0  176    1   -0.013363   -0.000000
    0    0    0  177    1   -0.007206   -0.000000
    0    0    0  178    1    0.007344    0.000000
    0    0    0  179    1    0.013972   -0.000000
    0    0    0  180    1    0.048666   -0.000000
    0    0    0  181    1   -0.000745   -0.000000
    0    0    0  182    1    0.030545    0.000000
    0    0    0  183    1   -0.050699    0.000000
    0    0    0  184    1   -0.007627    0.000000
    0    0    0  185    1   -0.167706   -0.000000
    0    0    0  186    1   -0.148043   -0.000000
    0    0    0  187    1   -0.038574   -0.000000
    0    0    0  188    1   -0.024078   -0.000000
    0    0    0  189    1   -0.479295   -0.000000
    0    0    0  190    1    0.021908    0.000000
    0    0    0  191    1    0.026937   -0.000000
    0    0    0    1    2   -0.000257   -0.000000
    0    0    0    2    2    2.733730    0.000000
    0    0    0    3    2    0.017243   -0.000000
    0    0    0    4    2    0.037927   -0.000000
    0    0    0    5    2   -0.005017    0.000000
    0    0    0    6    2   -0.131203   -0.000000
    0    0    0    7    2    0.194594    0.000000
    0    0    0    8    2   -0.130153    0.000000
    0    0    0    9    2   -0.073225   -0.000000
    0    0    0   10    2    0.139727    0.000000
    0    0    0   11    2   -0.000269    0.000000
    0    0    0   12    2    0.018847   -0.000000
    0    0    0   13    2    0.000994   -0.000000
    0    0    0   14    2   -0.012801    0.000000
    0    0    0   15    2   -0.005430    0.000000
    0    0    0   16    2   -0.003403    0.000000
    0    0    0   17    2    0.014349    0.000000
    0    0    0   18    2    0.002369   -0.000000
    0    0    0   19    2   -0.003422   -0.000000
    0    0    0   20    2   -0.016058   -0.000000
    0    0    0   21    2   -0.017503   -0.000000
    0    0    0   22    2   -0.010665    0.000000
    0    0    0   23    2   -0.020259    0.000000
    0    0    0   24    2   -0.028112   -0.000000
    0    0    0   25    2    0.040311    0.000000
    0    0    0   26    2    0.026299    0.000000
    0    0    0   27    2    0.024077   -0.000000
    0    0    0   28    2    0.012381   -0.000000
    0    0    0   29    2   -0.005589   -0.000000
    0    0    0   30    2   -0.059569    0.000000
    0    0    0   31    2    0.002935   -0.000000
    0    0    0   32    2   -0.013142    0.000000
    0    0    0   33    2    0.031985   -0.000000
    0    0    0   34    2    0.014253   -0.000000
    0    0    0   35    2    0.025963    0.000000
    0    0    0   36    2   -0.000381   -0.000000
    0    0    0   37    2   -0.012574    0.000000
    0    0    0   38    2    0.002793    0.000000
    0    0    0   39    2    0.010908   -0.000000
    0    0    0   40    2   -0.007806   -0.000000
    0    0    0   41    2    0.011869    0.000000
    0    0    0   42    2   -0.030072   -0.000000
    0    0    0   43    2    0.005042    0.000000
    0    0    0   44    2    0.005566   -0.000000
    0    0    0   45    2    0.002862    0.000000
    0    0    0   46    2   -0.009277   -0.000000
    0    0    0   47    2    0.003658   -0.000000
    0    0    0   48    2   -0.025493   -0.000000
    0    0    0   49    2    0.014708    0.000000
    0    0    0   50    2    0.019870   -0.000000
    0    0    0   51    2    0.236521    0.000000
    0    0    0   52    2   -0.281160   -0.000000
    0    0    0   53    2   -0.182676   -0.000000
    0    0    0   54    2   -0.067948    0.000000
    0    0    0   55    2    0.466051   -0.000000
    0    0    0   56    2   -0.194822   -0.000000
    0    0    0   57    2   -0.327725   -0.000000
    0    0    0   58    2    0.209410    0.000000
    0    0    0   59    2    0.066728   -0.000000
    0    0    0   60    2    0.398176    0.000000
    0    0    0   61    2   -0.002962   -0.000000
    0    0    0   62    2    0.022868   -0.000000
    0    0    0   63    2    0.032376    0.000000
    0    0    0   64    2    0.000881   -0.000000
    0    0    0   65    2    0.007845    0.000000
    0    0    0   66    2    0.002990   -0.000000
    0    0    0   67    2   -0.014288   -0.000000
    0    0    0   68    2   -0.008978    0.000000
    0    0    0   69    2   -0.013876   -0.000000
    0    0    0   70    2   -0.004497    0.000000
    0    0    0   71    2    0.081920    0.000000
    0    0    0   72    2    0.155966    0.000000
    0    0    0   73    2   -0.072455    0.000000
    0    0    0   74    2   -0.077648    0.000000
    0    0    0   75    2    0.085132   -0.000000
    0    0    0   76    2   -0.054193    0.000000
    0    0    0   77    2    0.107467   -0.000000
    0    0    0   78    2   -0.033739    0.000000
    0    0    0   79    2    0.055717    0.000000
    0    0    0   80    2    0.261756   -0.000000
    0    0    0   81    2   -0.021864   -0.000000
    0    0    0   82    2   -0.004651    0.000000
    0    0    0   83    2   -0.017271   -0.000000
    0    0    0   84    2    0.034211    0.000000
    0    0    0   85    2   -0.003203    0.000000
    0    0    0   86    2    0.023679    0.000000
    0    0    0   87    2   -0.001293   -0.000000
    0    0    0   88    2    0.002667   -0.000000
    0    0    0   89    2   -0.025773    0.000000
    0    0    0   90    2   -0.003996   -0.000000
    0    0    0   91    2   -0.087369    0.000000
    0    0    0   92    2    0.133068    0.000000
    0    0    0   93    2    0.030474   -0.000000
    0    0    0   94    2    0.039797   -0.000000
    0    0    0   95    2    0.087563   -0.000000
    0    0    0   96    2    0.018114   -0.000000
    0    0    0   97    2    0.003718    0.000000
    0    0    0   98    2   -0.002384   -0.000000
    0    0    0   99    2   -0.011146   -0.000000
    0    0    0  100    2    0.008141   -0.000000
    0    0    0  101    2   -0.003728    0.000000
    0    0    0  102    2   -0.013467    0.000000
    0    0    0  103    2   -0.002290   -0.000000
    0    0    0  104    2   -0.006619    0.000000
    0    0    0  105    2    0.023935   -0.000000
    0    0    0  106    2   -0.002900    0.000000
    0    0    0  107    2   -0.005908   -0.000000
    0    0    0  108    2    0.014573    0.000000
    0    0    0  109    2    0.002839    0.000000
    0    0    0  110    2    0.004303    0.000000
    0    0    0  111    2   -0.014591   -0.000000
    0    0    0  112    2   -0.003653   -0.000000
    0    0    0  113    2    0.019316    0.000000
    0    0    0  114    2   -0.017449   -0.000000
    0    0    0  115    2   -0.003600   -0.000000
    0    0    0  116    2    0.008441    0.000000
    0    0    0  117    2    0.009906   -0.000000
    0    0    0  118    2    0.002212    0.000000
    0    0    0  119    2   -0.002251    0.000000
    0    0    0  120    2    0.005756   -0.000000
    0    0    0  121    2    0.009288   -0.000000
    0    0    0  122    2    0.006483   -0.000000
    0    0    0  123    2   -0.035505    0.000000
    0    0    0  124    2    0.015758   -0.000000
    0    0    0  125    2    0.004343   -0.000000
    0    0    0  126    2   -0.006857    0.000000
    0    0    0  127    2    0.022077   -0.000000
    0    0    0  128    2    0.008199    0.000000
    0    0    0  129    2   -0.021461    0.000000
    0    0    0  130    2   -0.020157   -0.000000
    0    0    0  131    2    0.025596    0.000000
    0    0    0  132    2   -0.007492   -0.000000
    0    0    0  133    2    0.016034    0.000000
    0    0    0  134    2   -0.002289    0.000000
    0    0    0  135    2    0.012286    0.000000
    0    0    0  136    2   -0.010940    0.000000
    0    0    0  137    2   -0.001859   -0.000000
    0    0    0  138    2   -0.035159    0.000000
    0    0    0  139    2    0.065574   -0.000000
    0    0    0  140    2    0.006826   -0.000000
    0    0    0  141    2   -0.078680    0.000000
    0    0    0  142    2   -0.015019    0.000000
    0    0    0  143    2   -0.051550   -0.000000
    0    0    0  144    2   -0.014909   -0.000000
    0    0    0  145    2    0.089083    0.000000
    0    0    0  146    2    0.000447    0.000000
    0    0    0  147    2   -0.007873    0.000000
    0    0    0  148    2    0.018844    0.000000
    0    0    0  149    2    0.031313   -0.000000
    0    0    0  150    2    0.034836   -0.000000
    0    0    0  151    2    0.048947   -0.000000
    0    0    0  152    2    0.000911   -0.000000
    0    0    0  153    2    0.108687    0.000000
    0    0    0  154    2    0.015383   -0.000000
    0    0    0  155    2   -0.010876    0.000000
    0    0    0  156    2   -0.001611    0.000000
    0    0    0  157    2   -0.007820    0.000000
    0    0    0  158    2   -0.001627    0.000000
    0    0    0  159    2   -0.001761    0.000000
    0    0    0  160    2   -0.015160    0.000000
    0    0    0  161    2    0.010646    0.000000
    0    0    0  162    2    0.001126    0.000000
    0    0    0  163    2    0.024881   -0.000000
    0    0    0  164    2   -0.010003   -0.000000
    0    0    0  165    2    0.070467   -0.000000
    0    0    0  166    2   -0.027469    0.000000
    0    0    0  167    2    0.007523   -0.000000
    0    0    0  168    2   -0.070187   -0.000000
    0    0    0  169    2   -0.023039    0.000000
    0    0    0  170    2    0.092426    0.000000
    0    0    0  171    2   -0.751522   -0.000000
    0    0    0  172    2   -0.262081    0.000000
    0    0    0  173    2    0.459814   -0.000000
    0    0    0  174    2   -0.014683   -0.000000
    0    0    0  175    2    0.012611    0.000000
    0    0    0  176    2   -0.004104    0.000000
    0    0    0  177    2    0.056437    0.000000
    0    0    0  178    2    0.002004    0.000000
    0    0    0  179    2   -0.002073    0.000000
    0    0    0  180    2   -0.001956    0.000000
    0    0    0  181    2    0.054711   -0.000000
    0    0    0  182    2   -0.004135   -0.000000
    0    0    0  183    2    0.016246    0.000000
    0    0    0  184    2   -0.021115    0.000000
    0    0    0  185    2   -0.010128    0.000000
    0    0    0  186    2    0.039896   -0.000000
    0    0    0  187    2   -0.063554   -0.000000
    0    0    0  188    2   -0.093766   -0.000000
    0    0    0  189    2    0.082496    0.000000
    0    0    0  190    2   -0.866086    0.000000
    0    0    0  191    2   -0.525043   -0.000000
    0    0    0    1    3   -0.064044   -0.000000
    0    0    0    2    3    0.017243    0.000000
    0    0    0    3    3    2.560566   -0.000000
    0    0    0    4    3   -0.178619   -0.000000
    0    0    0    5    3   -0.054639    0.000000
    0    0    0    6    3    0.155299   -0.000000
    0    0    0    7    3    0.024310   -0.000000
    0    0    0    8    3    0.025608    0.000000
    0    0    0    9    3   -0.107479   -0.000000
    0    0    0   10    3    0.039804    0.000000
    0    0    0   11    3   -0.024651   -0.000000
    0    0    0   12    3   -0.015345    0.000000
    0    0    0   13    3   -0.022493    0.000000
    0    0    0   14    3   -0.010026   -0.000000
    0    0    0   15    3   -0.017648   -0.000000
    0    0    0   16    3    0.002894    0.000000
    0    0    0   17    3    0.009764   -0.000000
    0    0    0   18    3    0.020502    0.000000
    0    0    0   19    3   -0.015184    0.000000
    0    0    0   20    3   -0.008623   -0.000000
    0    0    0   21    3   -0.003555   -0.000000
    0    0    0   22    3    0.012728   -0.000000
    0    0    0   23    3    0.022259    0.000000
    0    0    0   24    3   -0.005079   -0.000000
    0    0    0   25    3    0.014560    0.000000
    0    0    0   26    3    0.024131    0.000000
    0    0    0   27    3   -0.017001    0.000000
    0    0    0   28    3    0.174273    0.000000
    0    0    0   29    3    0.122174    0.000000
    0    0    0   30    3    0.005343    0.000000
    0    0    0   31    3   -0.008797   -0.000000
    0    0    0   32    3   -0.019548   -0.000000
    0    0    0   33    3    0.040428   -0.000000
    0    0    0   34    3    0.008424   -0.000000
    0    0    0   35    3    0.010393   -0.000000
    0    0    0   36    3   -0.007106   -0.000000
    0    0    0   37    3    0.009762   -0.000000
    0    0    0   38    3   -0.002732    0.000000
    0    0    0   39    3   -0.008915   -0.000000
    0    0    0   40    3    0.004639    0.000000
    0    0    0   41    3    0.012749    0.000000
    0    0    0   42    3    0.020588   -0.000000
    0    0    0   43    3   -0.022960    0.000000
    0    0    0   44    3   -0.006410    0.000000
    0    0    0   45    3    0.018170    0.000000
    0    0    0   46    3   -0.000025   -0.000000
    0    0    0   47    3   -0.021338   -0.000000
    0    0    0   48    3   -0.029639    0.000000
    0    0    0   49    3    0.056863    0.000000
    0    0    0   50    3    0.068140   -0.000000
    0    0    0   51    3   -0.025339    0.000000
    0    0    0   52    3   -0.200646    0.000000
    0    0    0   53    3    0.065377    0.000000
    0    0    0   54    3    0.286530    0.000000
    0    0    0   55    3    0.171402   -0.000000
    0    0    0   56    3   -0.132295    0.000000
    0    0    0   57    3    0.157609   -0.000000
    0    0    0   58    3    0.015179    0.000000
    0    0    0   59    3    0.196791    0.000000
    0    0    0   60    3   -0.167907    0.000000
    0    0    0   61    3    0.013889   -0.000000
    0    0    0   62    3    0.011928   -0.000000
    0    0    0   63    3   -0.022431   -0.000000
    0    0    0   64    3    0.015989    0.000000
    0    0    0   65    3   -0.041436    0.000000
    0    0    0   66    3    0.008574   -0.000000
    0    0    0   67    3   -0.015393    0.000000
    0    0    0   68    3    0.001242   -0.000000
    0    0    0   69    3   -0.000697   -0.000000
    0    0    0   70    3   -0.003930   -0.000000
    0    0    0   71    3   -0.001390    0.000000
    0    0    0   72    3   -0.053227   -0.000000
    0    0    0   73    3    0.133115   -0.000000
    0    0    0   74    3   -0.080891    0.000000
    0    0    0   75    3   -0.101021   -0.000000
    0    0    0   76    3   -0.021085    0.000000
    0    0    0   77    3   -0.021592   -0.000000
    0    0    0   78    3   -0.540498   -0.000000
    0    0    0   79    3    0.193131    0.000000
    0    0    0   80    3   -0.034366   -0.000000
    0    0    0   81    3   -0.028737    0.000000
    0    0    0   82    3   -0.044364   -0.000000
    0    0    0   83    3   -0.000922    0.000000
    0    0    0   84    3    0.027793   -0.000000
    0    0    0   85    3   -0.003702    0.000000
    0    0    0   86    3   -0.018024    0.000000
    0    0    0   87    3    0.066674    0.000000
    0    0    0   88    3    0.019733    0.000000
    0    0    0   89    3    0.016816   -0.000000
    0    0    0   90    3    0.015667    0.000000
    0    0    0   91    3   -0.014622    0.000000
    0    0    0   92    3    0.098294   -0.000000
    0    0    0   93    3    0.086133   -0.000000
    0    0    0   94    3   -0.029590   -0.000000
    0    0    0   95    3    0.078860    0.000000
    0    0    0   96    3    0.010831   -0.000000
    0    0    0   97    3   -0.009012   -0.000000
    0    0    0   98    3    0.005612   -0.000000
    0    0    0   99    3   -0.008759    0.000000
    0    0    0  100    3    0.010746   -0.000000
    0    0    0  101    3    0.006106    0.000000
    0    0    0  102    3    0.007071    0.000000
    0    0    0  103    3   -0.010838    0.000000
    0    0    0  104    3    0.013317    0.000000
    0    0    0  105    3    0.026944   -0.000000
    0    0    0  106    3    0.004710    0.000000
    0    0    0  107    3    0.020749    0.000000
    0    0    0  108    3   -0.000430   -0.000000
    0    0    0  109    3    0.014989    0.000000
    0    0    0  110    3    0.018363    0.000000
    0    0    0  111    3    0.023405   -0.000000
    0    0    0  112    3   -0.003141   -0.000000
    0    0    0  113    3    0.046772    0.000000
    0    0    0  114    3   -0.002684   -0.000000
    0    0    0  115    3    0.013017    0.000000
    0    0    0  116    3    0.010842   -0.000000
    0    0    0  117    3   -0.011974   -0.000000
    0    0    0  118    3   -0.000190   -0.000000
    0    0    0  119    3    0.024979    0.000000
    0    0    0  120    3   -0.020333   -0.000000
    0    0    0  121    3    0.010878   -0.000000
    0    0    0  122    3    0.002994    0.000000
    0    0    0  123    3   -0.016959   -0.000000
    0    0    0  124    3    0.010540   -0.000000
    0    0    0  125    3    0.007144   -0.000000
    0    0    0  126    3    0.008692   -0.000000
    0    0    0  127    3    0.004591   -0.000000
    0    0    0  128    3    0.007938   -0.000000
    0    0    0  129    3   -0.016996    0.000000
    0    0    0  130    3    0.024358   -0.000000
    0    0    0  131    3   -0.005306   -0.000000
    0    0    0  132    3   -0.030056   -0.000000
    0    0    0  133    3    0.001832   -0.000000
    0    0    0  134    3    0.001376    0.000000
    0    0    0  135    3    0.009045    0.000000
    0    0    0  136    3    0.001457   -0.000000
    0    0    0  137    3   -0.002596   -0.000000
    0    0    0  138    3    0.004177    0.000000
    0    0    0  139    3   -0.028956   -0.000000
    0    0    0  140    3    0.038884   -0.000000
    0    0    0  141    3   -0.046224    0.000000
    0    0    0  142    3    0.046365    0.000000
    0    0    0  143    3   -0.085797    0.000000
    0    0    0  144    3   -0.082281   -0.000000
    0    0    0  145    3    0.012750   -0.000000
    0    0    0  146    3   -0.072607    0.000000
    0    0    0  147    3   -1.102429    0.000000
    0    0    0  148    3    0.214923   -0.000000
    0    0    0  149    3   -0.211774   -0.000000
    0    0    0  150    3   -0.014683    0.000000
    0    0    0  151    3    0.011342   -0.000000
    0    0    0  152    3    0.037027    0.000000
    0    0    0  153    3   -0.051837   -0.000000
    0    0    0  154    3   -0.077439   -0.000000
    0    0    0  155    3    0.011516    0.000000
    0    0    0  156    3    0.001588    0.000000
    0    0    0  157    3    0.000468   -0.000000
    0    0    0  158    3    0.006029    0.000000
    0    0    0  159    3    0.001915   -0.000000
    0    0    0  160    3    0.001115   -0.000000
    0    0    0  161    3   -0.007898    0.000000
    0    0    0  162    3    0.026616   -0.000000
    0    0    0  163    3   -0.022606   -0.000000
    0    0    0  164    3   -0.012413   -0.000000
    0    0    0  165    3   -0.025997    0.000000
    0    0    0  166    3   -0.023133    0.000000
    0    0    0  167    3    0.051325    0.000000
    0    0    0  168    3    0.058752   -0.000000
    0    0    0  169    3    0.080523    0.000000
    0    0    0  170    3    0.046377   -0.000000
    0    0    0  171    3    0.514458    0.000000
    0    0    0  172    3    0.512149   -0.000000
    0    0    0  173    3   -0.291388   -0.000000
    0    0    0  174    3   -0.016409    0.000000
    0    0    0  175    3    0.002443    0.000000
    0    0    0  176    3   -0.004419    0.000000
    0    0    0  177    3   -0.019481   -0.000000
    0    0    0  178    3   -0.011176   -0.000000
    0    0    0  179    3   -0.001264   -0.000000
    0    0    0  180    3    0.060833    0.000000
    0    0    0  181    3   -0.021326   -0.000000
    0    0    0  182    3    0.040152   -0.000000
    0    0    0  183    3    0.151544   -0.000000
    0    0    0  184    3    0.010363    0.000000
    0    0    0  185    3    0.062332   -0.000000
    0    0    0  186    3    0.041913   -0.000000
    0    0    0  187    3   -0.090854   -0.000000
    0    0    0  188    3    0.014097   -0.000000
    0    0    0  189    3    0.113498    0.000000
    0    0    0  190    3   -0.282591   -0.000000
    0    0    0  191    3   -0.475405   -0.000000
    0    0    0    1    4    0.008600   -0.000000
    0    0    0    2    4    0.037927    0.000000
    0    0    0    3    4   -0.178619    0.000000
    0    0    0    4    4    2.057598    0.000000
    0    0    0    5    4   -0.041208   -0.000000
    0    0    0    6    4    0.021399   -0.000000
    0    0    0    7    4   -0.093994    0.000000
    0    0    0    8    4    0.020653   -0.000000
    0    0    0    9    4   -0.129266    0.000000
    0    0    0   10    4    0.379067    0.000000
    0    0    0   11    4    0.008846   -0.000000
    0    0    0   12    4    0.051151   -0.000000
    0    0    0   13    4    0.016245    0.000000
    0    0    0   14    4   -0.062972    0.000000
    0    0    0   15    4   -0.023789   -0.000000
    0    0    0   16    4   -0.009270    0.000000
    0    0    0   17    4   -0.005404    0.000000
    0    0    0   18    4    0.014289    0.000000
    0    0    0   19    4    0.010606   -0.000000
    0    0    0   20    4   -0.004899   -0.000000
    0    0    0   21    4    0.024720   -0.000000
    0    0    0   22    4   -0.005585   -0.000000
    0    0    0   23    4   -0.017168   -0.000000
    0    0    0   24    4    0.009429   -0.000000
    0    0    0   25    4    0.012066    0.000000
    0    0    0   26    4    0.042813    0.000000
    0    0    0   27    4   -0.010607   -0.000000
    0    0    0   28    4   -0.049531   -0.000000
    0    0    0   29    4    0.012904   -0.000000
    0    0    0   30    4    0.024705   -0.000000
    0    0    0   31    4    0.014176   -0.000000
    0    0    0   32    4    0.019983   -0.000000
    0    0    0   33    4   -0.018337    0.000000
    0    0    0   34    4    0.004823   -0.000000
    0    0    0   35    4   -0.009458   -0.000000
    0    0    0   36    4   -0.010265   -0.000000
    0    0    0   37    4   -0.024645    0.000000
    0    0    0   38    4    0.001288   -0.000000
    0    0    0   39    4   -0.001998    0.000000
    0    0    0   40    4    0.009275   -0.000000
    0    0    0   41    4    0.026316    0.000000
    0    0    0   42    4   -0.033804    0.000000
    0    0    0   43    4    0.044385    0.000000
    0    0    0   44    4    0.000390   -0.000000
    0    0    0   45    4   -0.012738    0.000000
    0    0    0   46    4   -0.020374   -0.000000
    0    0    0   47    4    0.006157   -0.000000
    0    0    0   48    4   -0.010653   -0.000000
    0    0    0   49    4   -0.002505    0.000000
    0    0    0   50    4   -0.035547   -0.000000
    0    0    0   51    4   -0.146644    0.000000
    0    0    0   52    4    0.261559   -0.000000
    0    0    0   53    4    0.018670    0.000000
    0    0    0   54    4   -0.083150    0.000000
    0    0    0   55    4   -0.126671   -0.000000
    0    0    0   56    4   -0.308414   -0.000000
    0    0    0   57    4   -0.485177   -0.000000
    0    0    0   58    4    0.128356    0.000000
    0    0    0   59    4   -0.175687    0.000000
    0    0    0   60    4    0.099552    0.000000
    0    0    0   61    4   -0.020628   -0.000000
    0    0    0   62    4    0.003831   -0.000000
    0    0    0   63    4   -0.000949    0.000000
    0    0    0   64    4    0.022644    0.000000
    0    0    0   65    4    0.003283    0.000000
    0    0    0   66    4   -0.005235   -0.000000
    0    0    0   67    4    0.015495   -0.000000
    0    0    0   68    4   -0.004497   -0.000000
    0    0    0   69    4   -0.008116   -0.000000
    0    0    0   70    4    0.003725    0.000000
    0    0    0   71    4   -0.037473    0.000000
    0    0    0   72    4    0.045120    0.000000
    0    0    0   73    4    0.022626    0.000000
    0    0    0   74    4   -0.038250   -0.000000
    0    0    0   75    4   -0.034755    0.000000
    0    0    0   76    4    0.417818    0.000000
    0    0    0   77    4   -0.036490    0.000000
    0    0    0   78    4    0.835343   -0.000000
    0    0    0   79    4    0.100185    0.000000
    0    0    0   80    4    0.054480   -0.000000
    0    0    0   81    4   -0.018036    0.000000
    0    0    0   82    4   -0.003655    0.000000
    0    0    0   83    4   -0.014243   -0.000000
    0    0    0   84    4   -0.014889    0.000000
    0    0    0   85    4    0.020233   -0.000000
    0    0    0   86    4   -0.007449   -0.000000
    0    0    0   87    4    0.007648    0.000000
    0    0    0   88    4   -0.004197    0.000000
    0    0    0   89    4   -0.005397   -0.000000
    0    0    0   90    4   -0.028174   -0.000000
    0    0    0   91    4    0.003765   -0.000000
    0    0    0   92    4   -0.019112    0.000000
    0    0    0   93    4    0.058146    0.000000
    0    0    0   94    4   -0.047263    0.000000
    0    0    0   95    4    0.030701   -0.000000
    0    0    0   96    4   -0.000235    0.000000
    0    0    0   97    4    0.005261    0.000000
    0    0    0   98    4   -0.010231    0.000000
    0    0    0   99    4    0.003642   -0.000000
    0    0    0  100    4   -0.008073    0.000000
    0    0    0  101    4    0.027349    0.000000
    0    0    0  102    4    0.008494    0.000000
    0    0    0  103    4   -0.010405   -0.000000
    0    0    0  104    4   -0.002222   -0.000000
    0    0    0  105    4   -0.020215    0.000000
    0    0    0  106    4    0.034025    0.000000
    0    0    0  107    4   -0.054046    0.000000
    0    0    0  108    4    0.002720    0.000000
    0    0    0  109    4    0.005667    0.000000
    0    0    0  110    4   -0.003086    0.000000
    0    0    0  111    4   -0.035323    0.000000
    0    0    0  112    4   -0.024031   -0.000000
    0    0    0  113    4   -0.002636    0.000000
    0    0    0  114    4   -0.000739   -0.000000
    0    0    0  115    4   -0.001161   -0.000000
    0    0    0  116    4   -0.011991   -0.000000
    0    0    0  117    4    0.003523   -0.000000
    0    0    0  118    4    0.005200    0.000000
    0    0    0  119    4    0.041014   -0.000000
    0    0    0  120    4   -0.022557    0.000000
    0    0    0  121    4    0.015103   -0.000000
    0    0    0  122    4   -0.010949    0.000000
    0    0    0  123    4   -0.017808   -0.000000
    0    0    0  124    4   -0.069690   -0.000000
    0    0    0  125    4   -0.097494   -0.000000
    0    0    0  126    4   -0.002460    0.000000
    0    0    0  127    4    0.000910   -0.000000
    0    0    0  128    4   -0.007901    0.000000
    0    0    0  129    4    0.012203    0.000000
    0    0    0  130    4    0.062137   -0.000000
    0    0    0  131    4    0.023642   -0.000000
    0    0    0  132    4    0.000965   -0.000000
    0    0    0  133    4   -0.007493    0.000000
    0    0    0  134    4   -0.008774   -0.000000
    0    0    0  135    4   -0.017325    0.000000
    0    0    0  136    4   -0.010557    0.000000
    0    0    0  137    4   -0.004494   -0.000000
    0    0    0  138    4    0.000725    0.000000
    0    0    0  139    4   -0.033917    0.000000
    0    0    0  140    4   -0.023680   -0.000000
    0    0    0  141    4    0.047118   -0.000000
    0    0    0  142    4    0.099956    0.000000
    0    0    0  143    4    0.015662   -0.000000
    0    0    0  144    4   -0.103649   -0.000000
    0    0    0  145    4    0.030368    0.000000
    0    0    0  146    4    0.101170    0.000000
    0    0    0  147    4    0.059609    0.000000
    0    0    0  148    4    0.286695    0.000000
    0    0    0  149    4   -0.805695    0.000000
    0    0    0  150    4   -0.009041    0.000000
    0    0    0  151    4    0.038208    0.000000
    0    0    0  152    4   -0.026370    0.000000
    0    0    0  153    4    0.028937    0.000000
    0    0    0  154    4   -0.230229   -0.000000
    0    0    0  155    4    0.022249    0.000000
    0    0    0  156    4   -0.002224    0.000000
    0    0    0  157    4   -0.002842   -0.000000
    0    0    0  158    4   -0.015322   -0.000000
    0    0    0  159    4   -0.004648   -0.000000
    0    0    0  160    4    0.002615    0.000000
    0    0    0  161    4    0.035423    0.000000
    0    0    0  162    4    0.006124   -0.000000
    0    0    0  163    4   -0.000475    0.000000
    0    0    0  164    4   -0.024072   -0.000000
    0    0    0  165    4    0.119085   -0.000000
    0    0    0  166    4    0.018888    0.000000
    0    0    0  167    4    0.038844   -0.000000
    0    0    0  168    4    0.099280   -0.000000
    0    0    0  169    4   -0.111615    0.000000
    0    0    0  170    4   -0.024965    0.000000
    0    0    0  171    4   -0.636795    0.000000
    0    0    0  172    4    0.372598   -0.000000
    0    0    0  173    4   -0.845120    0.000000
    0    0    0  174    4   -0.006882   -0.000000
    0    0    0  175    4    0.000111    0.000000
    0    0    0  176    4    0.007455   -0.000000
    0    0    0  177    4   -0.012722    0.000000
    0    0    0  178    4    0.060841   -0.000000
    0    0    0  179    4   -0.098719    0.000000
    0    0    0  180    4    0.040889   -0.000000
    0    0    0  181    4   -0.008695   -0.000000
    0    0    0  182    4   -0.078007    0.000000
    0    0    0  183    4   -0.046239    0.000000
    0    0    0  184    4    0.015790    0.000000
    0    0    0  185    4    0.374383   -0.000000
    0    0    0  186    4    0.065075   -0.000000
    0    0    0  187    4    0.083378   -0.000000
    0    0    0  188    4   -0.054818   -0.000000
    0    0    0  189    4   -0.220060    0.000000
    0    0    0  190    4    0.721474   -0.000000
    0    0    0  191    4   -1.052630   -0.000000
    0    0    0    1    5    0.003347    0.000000
    0    0    0    2    5   -0.005017   -0.000000
    0    0    0    3    5   -0.054639   -0.000000
    0    0    0    4    5   -0.041208    0.000000
    0    0    0    5    5    2.072910    0.000000
    0    0    0    6    5   -0.028854    0.000000
    0    0    0    7    5   -0.137426   -0.000000
    0    0    0    8    5    0.124829   -0.000000
    0    0    0    9    5   -0.214746   -0.000000
    0    0    0   10    5    0.586571    0.000000
    0    0    0   11    5   -0.000893   -0.000000
    0    0    0   12    5    0.050428    0.000000
    0    0    0   13    5   -0.000779   -0.000000
    0    0    0   14    5   -0.011625   -0.000000
    0    0    0   15    5    0.000987    0.000000
    0    0    0   16    5   -0.002597    0.000000
    0    0    0   17    5    0.005869    0.000000
    0    0    0   18    5    0.012748   -0.000000
    0    0    0   19    5   -0.001425   -0.000000
    0    0    0   20    5   -0.002254   -0.000000
    0    0    0   21    5   -0.003971    0.000000
    0    0    0   22    5   -0.023460   -0.000000
    0    0    0   23    5   -0.005302   -0.000000
    0    0    0   24    5    0.018557    0.000000
    0    0    0   25    5    0.026019   -0.000000
    0    0    0   26    5    0.034382   -0.000000
    0    0    0   27    5    0.096611    0.000000
    0    0    0   28    5   -0.004245   -0.000000
    0    0    0   29    5    0.008713   -0.000000
    0    0    0   30    5   -0.076339   -0.000000
    0    0    0   31    5   -0.000155    0.000000
    0    0    0   32    5   -0.017365   -0.000000
    0    0    0   33    5    0.023351    0.000000
    0    0    0   34    5   -0.010786    0.000000
    0    0    0   35    5    0.012577    0.000000
    0    0    0   36    5    0.012575    0.000000
    0    0    0   37    5    0.029601   -0.000000
    0    0    0   38    5   -0.022284    0.000000
    0    0    0   39    5    0.012578   -0.000000
    0    0    0   40    5   -0.006969    0.000000
    0    0    0   41    5    0.015085   -0.000000
    0    0    0   42    5   -0.064034   -0.000000
    0    0    0   43    5    0.004238   -0.000000
    0    0    0   44    5   -0.001479    0.000000
    0    0    0   45    5   -0.001632    0.000000
    0    0    0   46    5    0.012477    0.000000
    0    0    0   47    5   -0.025872   -0.000000
    0    0    0   48    5   -0.009247    0.000000
    0    0    0   49    5    0.036116    0.000000
    0    0    0   50    5    0.018606    0.000000
    0    0    0   51    5   -0.563990   -0.000000
    0    0    0   52    5    0.520415    0.000000
    0    0    0   53    5    0.151468    0.000000
    0    0    0   54    5   -0.052261    0.000000
    0    0    0   55    5   -0.253717   -0.000000
    0    0    0   56    5    0.337258   -0.000000
    0    0    0   57    5    0.492522    0.000000
    0    0    0   58    5   -0.183753   -0.000000
    0    0    0   59    5    0.142480    0.000000
    0    0    0   60    5   -0.169621   -0.000000
    0    0    0   61    5   -0.015401    0.000000
    0    0    0   62    5   -0.021045    0.000000
    0    0    0   63    5    0.009085    0.000000
    0    0    0   64    5   -0.003688   -0.000000
    0    0    0   65    5   -0.007962   -0.000000
    0    0    0   66    5   -0.015487    0.000000
    0    0    0   67    5    0.008233    0.000000
    0    0    0   68    5    0.031500    0.000000
    0    0    0   69    5   -0.011100    0.000000
    0    0    0   70    5   -0.003540    0.000000
    0    0    0   71    5    0.083530   -0.000000
    0    0    0   72    5   -0.029975    0.000000
    0    0    0   73    5    0.080359    0.000000
    0    0    0   74    5   -0.028078   -0.000000
    0    0    0   75    5   -0.029197   -0.000000
    0    0    0   76    5    0.025183   -0.000000
    0    0    0   77    5   -0.099996   -0.000000
    0    0    0   78    5    0.068534   -0.000000
    0    0    0   79    5   -0.033552   -0.000000
    0    0    0   80    5   -0.020137   -0.000000
    0    0    0   81    5    0.018811    0.000000
    0    0    0   82    5   -0.033577   -0.000000
    0    0    0   83    5   -0.017108    0.000000
    0    0    0   84    5    0.018656    0.000000
    0    0    0   85    5    0.007644    0.000000
    0    0    0   86    5   -0.025009   -0.000000
    0    0    0   87    5   -0.011890    0.000000
    0    0    0   88    5    0.018940    0.000000
    0    0    0   89    5   -0.018374    0.000000
    0    0    0   90    5    0.004072   -0.000000
    0    0    0   91    5   -0.072151   -0.000000
    0    0    0   92    5    0.034223    0.000000
    0    0    0   93    5   -0.039113    0.000000
    0    0    0   94    5   -0.001055   -0.000000
    0    0    0   95    5    0.016281    0.000000
    0    0    0   96    5    0.007592    0.000000
    0    0    0   97    5   -0.003424   -0.000000
    0    0    0   98    5    0.006765   -0.000000
    0    0    0   99    5    0.007417    0.000000
    0    0    0  100    5    0.019641   -0.000000
    0    0    0  101    5   -0.006431   -0.000000
    0    0    0  102    5   -0.027036   -0.000000
    0    0    0  103    5   -0.022215   -0.000000
    0    0    0  104    5   -0.003825   -0.000000
    0    0    0  105    5   -0.031871   -0.000000
    0    0    0  106    5   -0.026097   -0.000000
    0    0    0  107    5    0.119814    0.000000
    0    0    0  108    5    0.019704   -0.000000
    0    0    0  109    5   -0.008386    0.000000
    0    0    0  110    5    0.007975   -0.000000
    0    0    0  111    5    0.028675    0.000000
    0    0    0  112    5   -0.051036    0.000000
    0    0    0  113    5   -0.088573   -0.000000
    0    0    0  114    5   -0.011021    0.000000
    0    0    0  115    5   -0.005598   -0.000000
    0    0    0  116    5   -0.003363    0.000000
    0    0    0  117    5   -0.010470   -0.000000
    0    0    0  118    5    0.016889    0.000000
    0    0    0  119    5    0.036184    0.000000
    0    0    0  120    5    0.002406   -0.000000
    0    0    0  121    5   -0.003736    0.000000
    0    0    0  122    5    0.007215   -0.000000
    0    0    0  123    5    0.033286    0.000000
    0    0    0  124    5    0.024464    0.000000
    0    0    0  125    5   -0.003014    0.000000
    0    0    0  126    5   -0.032113   -0.000000
    0    0    0  127    5    0.007595    0.000000
    0    0    0  128    5    0.010301    0.000000
    0    0    0  129    5    0.020585   -0.000000
    0    0    0  130    5   -0.098922   -0.000000
    0    0    0  131    5    0.015825   -0.000000
    0    0    0  132    5   -0.007718   -0.000000
    0    0    0  133    5   -0.007821   -0.000000
    0    0    0  134    5   -0.005517    0.000000
    0    0    0  135    5    0.009408    0.000000
    0    0    0  136    5    0.006942   -0.000000
    0    0    0  137    5   -0.000831    0.000000
    0    0    0  138    5   -0.032831   -0.000000
    0    0    0  139    5   -0.074224   -0.000000
    0    0    0  140    5   -0.044252   -0.000000
    0    0    0  141    5   -0.103318   -0.000000
    0    0    0  142    5    0.216483   -0.000000
    0    0    0  143    5    0.130736    0.000000
    0    0    0  144    5    0.007019    0.000000
    0    0    0  145    5   -0.062140   -0.000000
    0    0    0  146    5   -0.004930   -0.000000
    0    0    0  147    5   -0.199413   -0.000000
    0    0    0  148    5   -1.328679   -0.000000
    0    0    0  149    5   -0.108878    0.000000
    0    0    0  150    5    0.021449   -0.000000
    0    0    0  151    5   -0.035199   -0.000000
    0    0    0  152    5    0.036952    0.000000
    0    0    0  153    5   -0.009321   -0.000000
    0    0    0  154    5    0.226922    0.000000
    0    0    0  155    5   -0.173606   -0.000000
    0    0    0  156    5   -0.004801    0.000000
    0    0    0  157    5   -0.024829   -0.000000
    0    0    0  158    5    0.003673   -0.000000
    0    0    0  159    5   -0.004939    0.000000
    0    0    0  160    5    0.032727    0.000000
    0    0    0  161    5    0.005233   -0.000000
    0    0    0  162    5    0.021658    0.000000
    0    0    0  163    5    0.009513   -0.000000
    0    0    0  164    5   -0.010628   -0.000000
    0    0    0  165    5    0.193818    0.000000
    0    0    0  166    5   -0.073975   -0.000000
    0    0    0  167    5    0.037858    0.000000
    0    0    0  168    5   -0.080070    0.000000
    0    0    0  169    5    0.039007    0.000000
    0    0    0  170    5   -0.047259    0.000000
    0    0    0  171    5   -0.411060   -0.000000
    0    0    0  172    5   -0.512995    0.000000
    0    0    0  173    5   -0.676221   -0.000000
    0    0    0  174    5   -0.001361   -0.000000
    0    0    0  175    5    0.004849    0.000000
    0    0    0  176    5    0.004179   -0.000000
    0    0    0  177    5   -0.017413   -0.000000
    0    0    0  178    5    0.010770   -0.000000
    0    0    0  179    5    0.009233    0.000000
    0    0    0  180    5    0.011631   -0.000000
    0    0    0  181    5   -0.007918   -0.000000
    0    0    0  182    5   -0.007550    0.000000
    0    0    0  183    5    0.018291    0.000000
    0    0    0  184    5   -0.109705   -0.000000
    0    0    0  185    5    0.068596   -0.000000
    0    0    0  186    5    0.180889    0.000000
    0    0    0  187    5    0.068178   -0.000000
    0    0    0  188    5    0.046815    0.000000
    0    0    0  189    5   -0.854475   -0.000000
    0    0    0  190    5   -0.470598   -0.000000
    0    0    0  191    5    0.252474    0.000000
    0    0    0    1    6   -0.226404   -0.000000
    0    0    0    2    6   -0.131203    0.000000
    0    0    0    3    6    0.155299    0.000000
    0    0    0    4    6    0.021399    0.000000
    0    0    0    5    6   -0.028854   -0.000000
    0    0    0    6    6    1.600121    0.000000
    0    0    0    7    6   -0.126219    0.000000
    0    0    0    8    6   -0.171280    0.000000
    0    0    0    9    6   -0.038729   -0.000000
    0    0    0   10    6    0.180604    0.000000
    0    0    0   11    6   -0.222471    0.000000
    0    0    0   12    6    0.117303   -0.000000
    0    0    0   13    6    0.127498   -0.000000
    0    0    0   14    6   -0.122937    0.000000
    0    0    0   15    6    0.035389   -0.000000
    0    0    0   16    6    0.006071   -0.000000
    0    0    0   17    6   -0.016942    0.000000
    0    0    0   18    6    0.027763    0.000000
    0    0    0   19    6    0.027203   -0.000000
    0    0    0   20    6    0.029297   -0.000000
    0    0    0   21    6    0.016782   -0.000000
    0    0    0   22    6    0.005051    0.000000
    0    0    0   23    6    0.010859    0.000000
    0    0    0   24    6    0.000050    0.000000
    0    0    0   25    6    0.005640   -0.000000
    0    0    0   26    6   -0.001153    0.000000
    0    0    0   27    6    0.005597   -0.000000
    0    0    0   28    6   -0.003985   -0.000000
    0    0    0   29    6    0.006276   -0.000000
    0    0    0   30    6   -0.018458    0.000000
    0    0    0   31    6    0.052268   -0.000000
    0    0    0   32    6    0.023683   -0.000000
    0    0    0   33    6   -0.020312   -0.000000
    0    0    0   34    6   -0.003970   -0.000000
    0    0    0   35    6   -0.066509    0.000000
    0    0    0   36    6   -0.009670   -0.000000
    0    0    0   37    6    0.017459    0.000000
    0    0    0   38    6    0.003674   -0.000000
    0    0    0   39    6    0.000252   -0.000000
    0    0    0   40    6    0.004013   -0.000000
    0    0    0   41    6    0.076901   -0.000000
    0    0    0   42    6   -0.000578    0.000000
    0    0    0   43    6    0.077141   -0.000000
    0    0    0   44    6   -0.028327   -0.000000
    0    0    0   45    6   -0.055315   -0.000000
    0    0    0   46    6    0.205336    0.000000
    0    0    0   47    6    0.240263   -0.000000
    0    0    0   48    6    0.110361   -0.000000
    0    0    0   49    6   -0.166624   -0.000000
    0    0    0   50    6   -0.412736    0.000000
    0    0    0   51    6    0.451994   -0.000000
    0    0    0   52    6   -0.050502   -0.000000
    0    0    0   53    6    0.304444   -0.000000
    0    0    0   54    6   -0.241023   -0.000000
    0    0    0   55    6    0.347743    0.000000
    0    0    0   56    6   -0.009164   -0.000000
    0    0    0   57    6    0.023342   -0.000000
    0    0    0   58    6   -0.013747   -0.000000
    0    0    0   59    6    0.007296   -0.000000
    0    0    0   60    6   -0.068646    0.000000
    0    0    0   61    6   -0.035398   -0.000000
    0    0    0   62    6   -0.041968   -0.000000
    0    0    0   63    6   -0.068336   -0.000000
    0    0    0   64    6    0.051983    0.000000
    0    0    0   65    6    0.067510   -0.000000
    0    0    0   66    6    0.007251   -0.000000
    0    0    0   67    6   -0.006599    0.000000
    0    0    0   68    6   -0.000177   -0.000000
    0    0    0   69    6   -0.004446    0.000000
    0    0    0   70    6   -0.001482    0.000000
    0    0    0   71    6    0.070802    0.000000
    0    0    0   72    6    0.024157   -0.000000
    0    0    0   73    6   -0.410470    0.000000
    0    0    0   74    6    0.440532    0.000000
    0    0    0   75    6    0.045110   -0.000000
    0    0    0   76    6   -0.021186   -0.000000
    0    0    0   77    6    0.057483   -0.000000
    0    0    0   78    6    0.079721   -0.000000
    0    0    0   79    6    0.022401    0.000000
    0    0    0   80    6    0.044699   -0.000000
    0    0    0   81    6    0.008539   -0.000000
    0    0    0   82    6   -0.002758    0.000000
    0    0    0   83    6    0.005683   -0.000000
    0    0    0   84    6   -0.019927   -0.000000
    0    0    0   85    6    0.001632   -0.000000
    0    0    0   86    6   -0.002477   -0.000000
    0    0    0   87    6   -0.006250   -0.000000
    0    0    0   88    6    0.002118   -0.000000
    0    0    0   89    6    0.002162   -0.000000
    0    0    0   90    6   -0.006627    0.000000
    0    0    0   91    6   -0.002200    0.000000
    0    0    0   92    6    0.009634    0.000000
    0    0    0   93    6   -0.020009    0.000000
    0    0    0   94    6   -0.016072    0.000000
    0    0    0   95    6    0.005384    0.000000
    0    0    0   96    6   -0.017331    0.000000
    0    0    0   97    6    0.006439   -0.000000
    0    0    0   98    6   -0.000627   -0.000000
    0    0    0   99    6    0.010859    0.000000
    0    0    0  100    6    0.005134    0.000000
    0    0    0  101    6    0.000315   -0.000000
    0    0    0  102    6   -0.010986    0.000000
    0    0    0  103    6   -0.008474    0.000000
    0    0    0  104    6   -0.002530    0.000000
    0    0    0  105    6    0.009231    0.000000
    0    0    0  106    6    0.008176    0.000000
    0    0    0  107    6   -0.001975   -0.000000
    0    0    0  108    6   -0.006085    0.000000
    0    0    0  109    6   -0.017612   -0.000000
    0    0    0  110    6    0.005222   -0.000000
    0    0    0  111    6   -0.020851   -0.000000
    0    0    0  112    6   -0.008716   -0.000000
    0    0    0  113    6    0.026480   -0.000000
    0    0    0  114    6    0.011455   -0.000000
    0    0    0  115    6    0.001807    0.000000
    0    0    0  116    6    0.005624    0.000000
    0    0    0  117    6   -0.023733   -0.000000
    0    0    0  118    6   -0.013670   -0.000000
    0    0    0  119    6    0.001406    0.000000
    0    0    0  120    6   -0.013517    0.000000
    0    0    0  121    6   -0.007036    0.000000
    0    0    0  122    6    0.003400    0.000000
    0    0    0  123    6    0.021144   -0.000000
    0    0    0  124    6    0.005645    0.000000
    0    0    0  125    6    0.000932    0.000000
    0    0    0  126    6    0.007435   -0.000000
    0    0    0  127    6    0.007017    0.000000
    0    0    0  128    6    0.007591    0.000000
    0    0    0  129    6    0.022293   -0.000000
    0    0    0  130    6   -0.033872    0.000000
    0    0    0  131    6    0.029529   -0.000000
    0    0    0  132    6    0.027583    0.000000
    0    0    0  133    6   -0.016019    0.000000
    0    0    0  134    6   -0.017162   -0.000000
    0    0    0  135    6   -0.107309   -0.000000
    0    0    0  136    6    0.188832   -0.000000
    0    0    0  137    6   -0.044930    0.000000
    0    0    0  138    6   -0.200903    0.000000
    0    0    0  139    6   -0.010003    0.000000
    0    0    0  140    6    0.079430    0.000000
    0    0    0  141    6    0.091106    0.000000
    0    0    0  142    6   -0.314360    0.000000
    0    0    0  143    6   -0.120916    0.000000
    0    0    0  144    6    0.054370    0.000000
    0    0    0  145    6    0.001251    0.000000
    0    0    0  146    6    0.022967    0.000000
    0    0    0  147    6   -0.021674    0.000000
    0    0    0  148    6   -0.112575   -0.000000
    0    0    0  149    6    0.024402   -0.000000
    0    0    0  150    6   -0.038656    0.000000
    0    0    0  151    6    0.009887    0.000000
    0    0    0  152    6    0.005985   -0.000000
    0    0    0  153    6    0.007547    0.000000
    0    0    0  154    6    0.003924   -0.000000
    0    0    0  155    6   -0.000392    0.000000
    0    0    0  156    6   -0.018130    0.000000
    0    0    0  157    6    0.001852    0.000000
    0    0    0  158    6   -0.013015    0.000000
    0    0    0  159    6   -0.019207    0.000000
    0    0    0  160    6    0.020627    0.000000
    0    0    0  161    6   -0.016327   -0.000000
    0    0    0  162    6   -0.183456    0.000000
    0    0    0  163    6    0.073680   -0.000000
    0    0    0  164    6   -0.012118   -0.000000
    0    0    0  165    6    0.069303   -0.000000
    0    0    0  166    6   -0.009030   -0.000000
    0    0    0  167    6   -0.199939    0.000000
    0    0    0  168    6   -0.140283    0.000000
    0    0    0  169    6   -0.095571    0.000000
    0    0    0  170    6   -0.059531   -0.000000
    0    0    0  171    6    0.015133   -0.000000
    0    0    0  172    6   -0.549773    0.000000
    0    0    0  173    6   -0.447673   -0.000000
    0    0    0  174    6    0.045565    0.000000
    0    0    0  175    6    0.019647   -0.000000
    0    0    0  176    6    0.010865   -0.000000
    0    0    0  177    6   -0.028688   -0.000000
    0    0    0  178    6   -0.024455    0.000000
    0    0    0  179    6   -0.149941    0.000000
    0    0    0  180    6   -0.006139    0.000000
    0    0    0  181    6   -0.004403   -0.000000
    0    0    0  182    6   -0.003286    0.000000
    0    0    0  183    6   -0.028725   -0.000000
    0    0    0  184    6   -0.015130    0.000000
    0    0    0  185    6   -0.002271   -0.000000
    0    0    0  186    6    0.008552   -0.000000
    0    0    0  187    6   -0.006975   -0.000000
    0    0    0  188    6   -0.001126   -0.000000
    0    0    0  189    6    0.002379    0.000000
    0    0    0  190    6    0.016656   -0.000000
    0    0    0  191    6   -0.000298    0.000000
    0    0    0    1    7    0.187376   -0.000000
    0    0    0    2    7    0.194594   -0.000000
    0    0    0    3    7    0.024310    0.000000
    0    0    0    4    7   -0.093994   -0.000000
    0    0    0    5    7   -0.137426    0.000000
    0    0    0    6    7   -0.126219   -0.000000
    0    0    0    7    7    1.313028   -0.000000
    0    0    0    8    7   -0.228121   -0.000000
    0    0    0    9    7   -0.187194   -0.000000
    0    0    0   10    7    0.200682    0.000000
    0    0    0   11    7   -0.126113   -0.000000
    0    0    0   12    7    0.027680    0.000000
    0    0    0   13    7   -0.023799    0.000000
    0    0    0   14    7   -0.055241    0.000000
    0    0    0   15    7   -0.013939    0.000000
    0    0    0   16    7    0.009575    0.000000
    0    0    0   17    7   -0.005996    0.000000
    0    0    0   18    7    0.012262    0.000000
    0    0    0   19    7    0.011220   -0.000000
    0    0    0   20    7    0.016229    0.000000
    0    0    0   21    7    0.007161    0.000000
    0    0    0   22    7    0.008837   -0.000000
    0    0    0   23    7    0.002409    0.000000
    0    0    0   24    7    0.004985   -0.000000
    0    0    0   25    7   -0.022234   -0.000000
    0    0    0   26    7    0.000407    0.000000
    0    0    0   27    7    0.001841    0.000000
    0    0    0   28    7   -0.030184   -0.000000
    0    0    0   29    7   -0.017487   -0.000000
    0    0    0   30    7    0.020245   -0.000000
    0    0    0   31    7   -0.006092   -0.000000
    0    0    0   32    7   -0.021515   -0.000000
    0    0    0   33    7   -0.016660    0.000000
    0    0    0   34    7    0.018763   -0.000000
    0    0    0   35    7   -0.013585   -0.000000
    0    0    0   36    7   -0.006978    0.000000
    0    0    0   37    7    0.000136    0.000000
    0    0    0   38    7   -0.023625   -0.000000
    0    0    0   39    7   -0.007846   -0.000000
    0    0    0   40    7   -0.003437   -0.000000
    0    0    0   41    7    0.088154    0.000000
    0    0    0   42    7    0.129331   -0.000000
    0    0    0   43    7   -0.091413    0.000000
    0    0    0   44    7   -0.014018    0.000000
    0    0    0   45    7    0.071726   -0.000000
    0    0    0   46    7    0.081035    0.000000
    0    0    0   47    7   -0.415551    0.000000
    0    0    0   48    7   -0.295850   -0.000000
    0    0    0   49    7    0.208866    0.000000
    0    0    0   50    7    0.444407   -0.000000
    0    0    0   51    7   -0.324717    0.000000
    0    0    0   52    7   -0.121958   -0.000000
    0    0    0   53    7    0.496662    0.000000
    0    0    0   54    7   -0.247706   -0.000000
    0    0    0   55    7    0.338495   -0.000000
    0    0    0   56    7   -0.003026   -0.000000
    0    0    0   57    7   -0.009208   -0.000000
    0    0    0   58    7    0.036237   -0.000000
    0    0    0   59    7   -0.007851   -0.000000
    0    0    0   60    7    0.043307    0.000000
    0    0    0   61    7   -0.009657   -0.000000
    0    0    0   62    7    0.037553    0.000000
    0    0    0   63    7   -0.039806   -0.000000
    0    0    0   64    7   -0.018633   -0.000000
    0    0    0   65    7   -0.021830   -0.000000
    0    0    0   66    7   -0.019135    0.000000
    0    0    0   67    7   -0.006207    0.000000
    0    0    0   68    7    0.013133   -0.000000
    0    0    0   69    7    0.010207   -0.000000
    0    0    0   70    7   -0.010982    0.000000
    0    0    0   71    7    0.013295    0.000000
    0    0    0   72    7    0.006553   -0.000000
    0    0    0   73    7    0.171969    0.000000
    0    0    0   74    7   -0.074708    0.000000
    0    0    0   75    7    0.110838    0.000000
    0    0    0   76    7   -0.172444    0.000000
    0    0    0   77    7    0.124429    0.000000
    0    0    0   78    7    0.047419    0.000000
    0    0    0   79    7    0.094008    0.000000
    0    0    0   80    7    0.031161    0.000000
    0    0    0   81    7    0.017285   -0.000000
    0    0    0   82    7   -0.010374    0.000000
    0    0    0   83    7    0.002222   -0.000000
    0    0    0   84    7   -0.051994   -0.000000
    0    0    0   85    7   -0.012981   -0.000000
    0    0    0   86    7    0.003588   -0.000000
    0    0    0   87    7    0.006620    0.000000
    0    0    0   88    7    0.018555    0.000000
    0    0    0   89    7   -0.002313   -0.000000
    0    0    0   90    7   -0.007947    0.000000
    0    0    0   91    7    0.002925    0.000000
    0    0    0   92    7    0.025637   -0.000000
    0    0    0   93    7    0.017437    0.000000
    0    0    0   94    7    0.012786    0.000000
    0    0    0   95    7   -0.003841    0.000000
    0    0    0   96    7   -0.013534    0.000000
    0    0    0   97    7   -0.000595   -0.000000
    0    0    0   98    7    0.001652    0.000000
    0    0    0   99    7    0.013542    0.000000
    0    0    0  100    7   -0.000945    0.000000
    0    0    0  101    7   -0.003417   -0.000000
    0    0    0  102    7    0.007871   -0.000000
    0    0    0  103    7   -0.006986   -0.000000
    0    0    0  104    7   -0.010812   -0.000000
    0    0    0  105    7   -0.022196   -0.000000
    0    0    0  106    7    0.008268    0.000000
    0    0    0  107    7    0.005525   -0.000000
    0    0    0  108    7    0.001973   -0.000000
    0    0    0  109    7    0.000631    0.000000
    0    0    0  110    7    0.002756    0.000000
    0    0    0  111    7    0.025572   -0.000000
    0    0    0  112    7    0.011530   -0.000000
    0    0    0  113    7   -0.038637   -0.000000
    0    0    0  114    7    0.011598    0.000000
    0    0    0  115    7    0.009408   -0.000000
    0    0    0  116    7   -0.005774   -0.000000
    0    0    0  117    7   -0.026790   -0.000000
    0    0    0  118    7   -0.004116   -0.000000
    0    0    0  119    7    0.032262   -0.000000
    0    0    0  120    7   -0.005869   -0.000000
    0    0    0  121    7   -0.011097   -0.000000
    0    0    0  122    7   -0.004662    0.000000
    0    0    0  123    7   -0.008986   -0.000000
    0    0    0  124    7   -0.015376   -0.000000
    0    0    0  125    7    0.016079    0.000000
    0    0    0  126    7   -0.001339    0.000000
    0    0    0  127    7    0.017835   -0.000000
    0    0    0  128    7    0.011599   -0.000000
    0    0    0  129    7    0.060056    0.000000
    0    0    0  130    7   -0.005431   -0.000000
    0    0    0  131    7   -0.045407   -0.000000
    0    0    0  132    7   -0.035426    0.000000
    0    0    0  133    7    0.036017   -0.000000
    0    0    0  134    7    0.009209    0.000000
    0    0    0  135    7   -0.055968   -0.000000
    0    0    0  136    7   -0.012052    0.000000
    0    0    0  137    7   -0.065079    0.000000
    0    0    0  138    7    0.034123   -0.000000
    0    0    0  139    7    0.052815   -0.000000
    0    0    0  140    7   -0.005976    0.000000
    0    0    0  141    7    0.071420    0.000000
    0    0    0  142    7    0.551487    0.000000
    0    0    0  143    7   -0.123316    0.000000
    0    0    0  144    7   -0.008794    0.000000
    0    0    0  145    7    0.068146   -0.000000
    0    0    0  146    7    0.015470    0.000000
    0    0    0  147    7    0.103259   -0.000000
    0    0    0  148    7   -0.008688   -0.000000
    0    0    0  149    7   -0.032822   -0.000000
    0    0    0  150    7    0.014789    0.000000
    0    0    0  151    7    0.011121    0.000000
    0    0    0  152    7   -0.007816   -0.000000
    0    0    0  153    7   -0.006756   -0.000000
    0    0    0  154    7   -0.017262   -0.000000
    0    0    0  155    7    0.020152    0.000000
    0    0    0  156    7   -0.009085   -0.000000
    0    0    0  157    7    0.004330   -0.000000
    0    0    0  158    7    0.010147   -0.000000
    0    0    0  159    7    0.038586    0.000000
    0    0    0  160    7    0.019827    0.000000
    0    0    0  161    7   -0.010843    0.000000
    0    0    0  162    7   -0.006133   -0.000000
    0    0    0  163    7   -0.089588   -0.000000
    0    0    0  164    7    0.069643   -0.000000
    0    0    0  165    7   -0.008459   -0.000000
    0    0    0  166    7   -0.953157   -0.000000
    0    0    0  167    7    0.581111   -0.000000
    0    0    0  168    7    0.137617   -0.000000
    0    0    0  169    7   -0.021587   -0.000000
    0    0    0  170    7   -0.108152   -0.000000
    0    0    0  171    7    0.260015   -0.000000
    0    0    0  172    7   -0.538088    0.000000
    0    0    0  173    7   -1.241739   -0.000000
    0    0    0  174    7    0.011483   -0.000000
    0    0    0  175    7    0.047649    0.000000
    0    0    0  176    7    0.014613   -0.000000
    0    0    0  177    7   -0.045175   -0.000000
    0    0    0  178    7   -0.013700    0.000000
    0    0    0  179    7    0.064740   -0.000000
    0    0    0  180    7    0.027067    0.000000
    0    0    0  181    7    0.000163   -0.000000
    0    0    0  182    7    0.001187    0.000000
    0    0    0  183    7   -0.048480   -0.000000
    0    0    0  184    7   -0.007795   -0.000000
    0    0    0  185    7    0.009934   -0.000000
    0    0    0  186    7    0.004207   -0.000000
    0    0    0  187    7    0.001730    0.000000
    0    0    0  188    7   -0.019976   -0.000000
    0    0    0  189    7    0.018794    0.000000
    0    0    0  190    7   -0.000060   -0.000000
    0    0    0  191    7    0.001631   -0.000000
    0    0    0    1    8    0.152873    0.000000
    0    0    0    2    8   -0.130153   -0.000000
    0    0    0    3    8    0.025608   -0.000000
    0    0    0    4    8    0.020653    0.000000
    0    0    0    5    8    0.124829    0.000000
    0    0    0    6    8   -0.171280   -0.000000
    0    0    0    7    8   -0.228121    0.000000
    0    0    0    8    8    1.027938   -0.000000
    0    0    0    9    8    0.156679    0.000000
    0    0    0   10    8   -0.404145   -0.000000
    0    0    0   11    8    0.135173    0.000000
    0    0    0   12    8    0.027394    0.000000
    0    0    0   13    8   -0.007104    0.000000
    0    0    0   14    8    0.001589   -0.000000
    0    0    0   15    8   -0.070583   -0.000000
    0    0    0   16    8   -0.019144    0.000000
    0    0    0   17    8   -0.016172    0.000000
    0    0    0   18    8    0.043561    0.000000
    0    0    0   19    8    0.001395   -0.000000
    0    0    0   20    8   -0.010498   -0.000000
    0    0    0   21    8    0.011364   -0.000000
    0    0    0   22    8    0.007002   -0.000000
    0    0    0   23    8    0.017545   -0.000000
    0    0    0   24    8   -0.026376    0.000000
    0    0    0   25    8    0.022169    0.000000
    0    0    0   26    8   -0.038134    0.000000
    0    0    0   27    8    0.023444    0.000000
    0    0    0   28    8    0.046211    0.000000
    0    0    0   29    8    0.016992    0.000000
    0    0    0   30    8   -0.010494   -0.000000
    0    0    0   31    8    0.043283   -0.000000
    0    0    0   32    8   -0.005448    0.000000
    0    0    0   33    8    0.213886   -0.000000
    0    0    0   34    8    0.128231    0.000000
    0    0    0   35    8   -0.000290    0.000000
    0    0    0   36    8   -0.003834    0.000000
    0    0    0   37    8   -0.011983    0.000000
    0    0    0   38    8    0.011606    0.000000
    0    0    0   39    8   -0.006944    0.000000
    0    0    0   40    8    0.003238   -0.000000
    0    0    0   41    8   -0.031568   -0.000000
    0    0    0   42    8   -0.084773   -0.000000
    0    0    0   43    8    0.065517    0.000000
    0    0    0   44    8   -0.052754   -0.000000
    0    0    0   45    8   -0.069109    0.000000
    0    0    0   46    8    0.038444   -0.000000
    0    0    0   47    8   -0.237562   -0.000000
    0    0    0   48    8   -0.125762   -0.000000
    0    0    0   49    8    0.278409    0.000000
    0    0    0   50    8    0.096922    0.000000
    0    0    0   51    8    0.064373    0.000000
    0    0    0   52    8    0.173819    0.000000
    0    0    0   53    8   -0.297293   -0.000000
    0    0    0   54    8    0.333065    0.000000
    0    0    0   55    8   -0.045230   -0.000000
    0    0    0   56    8    0.032016    0.000000
    0    0    0   57    8    0.038995    0.000000
    0    0    0   58    8   -0.016058   -0.000000
    0    0    0   59    8    0.024900    0.000000
    0    0    0   60    8   -0.146132   -0.000000
    0    0    0   61    8   -0.013531    0.000000
    0    0    0   62    8   -0.017920   -0.000000
    0    0    0   63    8   -0.016098    0.000000
    0    0    0   64    8    0.058956    0.000000
    0    0    0   65    8    0.074157    0.000000
    0    0    0   66    8   -0.008567   -0.000000
    0    0    0   67    8   -0.031878    0.000000
    0    0    0   68    8   -0.006359    0.000000
    0    0    0   69    8    0.035432   -0.000000
    0    0    0   70    8   -0.020020   -0.000000
    0    0    0   71    8   -0.424946   -0.000000
    0    0    0   72    8    0.106591    0.000000
    0    0    0   73    8   -0.669831    0.000000
    0    0    0   74    8    0.035114   -0.000000
    0    0    0   75    8   -0.063237   -0.000000
    0    0    0   76    8   -0.150054    0.000000
    0    0    0   77    8    0.129381   -0.000000
    0    0    0   78    8    0.168459    0.000000
    0    0    0   79    8   -0.092030   -0.000000
    0    0    0   80    8    0.096265   -0.000000
    0    0    0   81    8   -0.014329    0.000000
    0    0    0   82    8    0.030961   -0.000000
    0    0    0   83    8    0.021406   -0.000000
    0    0    0   84    8    0.036125    0.000000
    0    0    0   85    8    0.008245   -0.000000
    0    0    0   86    8    0.007002    0.000000
    0    0    0   87    8    0.004266    0.000000
    0    0    0   88    8    0.011272    0.000000
    0    0    0   89    8    0.014565    0.000000
    0    0    0   90    8   -0.005028    0.000000
    0    0    0   91    8    0.003746   -0.000000
    0    0    0   92    8   -0.024892   -0.000000
    0    0    0   93    8   -0.060832   -0.000000
    0    0    0   94    8   -0.026325    0.000000
    0    0    0   95    8   -0.010571   -0.000000
    0    0    0   96    8    0.010536    0.000000
    0    0    0   97    8    0.005450   -0.000000
    0    0    0   98    8    0.011781   -0.000000
    0    0    0   99    8   -0.018695    0.000000
    0    0    0  100    8   -0.002338    0.000000
    0    0    0  101    8    0.010915   -0.000000
    0    0    0  102    8    0.004306    0.000000
    0    0    0  103    8   -0.003316    0.000000
    0    0    0  104    8    0.015211    0.000000
    0    0    0  105    8   -0.005391   -0.000000
    0    0    0  106    8    0.008320   -0.000000
    0    0    0  107    8    0.004427    0.000000
    0    0    0  108    8    0.000944   -0.000000
    0    0    0  109    8   -0.015725   -0.000000
    0    0    0  110    8    0.011604   -0.000000
    0    0    0  111    8    0.022876    0.000000
    0    0    0  112    8   -0.006701    0.000000
    0    0    0  113    8    0.054356    0.000000
    0    0    0  114    8    0.007452   -0.000000
    0    0    0  115    8    0.013430   -0.000000
    0    0    0  116    8    0.016979    0.000000
    0    0    0  117    8    0.024845   -0.000000
    0    0    0  118    8    0.004299    0.000000
    0    0    0  119    8    0.039829   -0.000000
    0    0    0  120    8    0.005695   -0.000000
    0    0    0  121    8   -0.002279   -0.000000
    0    0    0  122    8    0.004179   -0.000000
    0    0    0  123    8    0.015144    0.000000
    0    0    0  124    8   -0.001336    0.000000
    0    0    0  125    8   -0.026236   -0.000000
    0    0    0  126    8   -0.000713   -0.000000
    0    0    0  127    8   -0.008461   -0.000000
    0    0    0  128    8    0.002650    0.000000
    0    0    0  129    8   -0.040677    0.000000
    0    0    0  130    8   -0.004224   -0.000000
    0    0    0  131    8    0.046505   -0.000000
    0    0    0  132    8    0.002866   -0.000000
    0    0    0  133    8   -0.006470    0.000000
    0    0    0  134    8    0.019209   -0.000000
    0    0    0  135    8   -0.049749    0.000000
    0    0    0  136    8    0.025160   -0.000000
    0    0    0  137    8   -0.082530    0.000000
    0    0    0  138    8   -0.130428    0.000000
    0    0    0  139    8    0.006696   -0.000000
    0    0    0  140    8   -0.111178   -0.000000
    0    0    0  141    8   -0.183041   -0.000000
    0    0    0  142    8   -0.104181   -0.000000
    0    0    0  143    8   -1.394486    0.000000
    0    0    0  144    8    0.061000    0.000000
    0    0    0  145    8    0.031299    0.000000
    0    0    0  146    8    0.002843   -0.000000
    0    0    0  147    8   -0.134293   -0.000000
    0    0    0  148    8    0.017473    0.000000
    0    0    0  149    8    0.052602    0.000000
    0    0    0  150    8   -0.039145   -0.000000
    0    0    0  151    8   -0.005229   -0.000000
    0    0    0  152    8    0.003015    0.000000
    0    0    0  153    8    0.011257   -0.000000
    0    0    0  154    8    0.014469    0.000000
    0    0    0  155    8   -0.006249    0.000000
    0    0    0  156    8   -0.012083    0.000000
    0    0    0  157    8    0.001766   -0.000000
    0    0    0  158    8   -0.006361    0.000000
    0    0    0  159    8   -0.003096    0.000000
    0    0    0  160    8   -0.022375    0.000000
    0    0    0  161    8    0.018809   -0.000000
    0    0    0  162    8    0.037505    0.000000
    0    0    0  163    8    0.053627   -0.000000
    0    0    0  164    8    0.016272   -0.000000
    0    0    0  165    8   -0.178517    0.000000
    0    0    0  166    8    0.723380   -0.000000
    0    0    0  167    8    0.097776   -0.000000
    0    0    0  168    8    0.182240    0.000000
    0    0    0  169    8   -0.120496    0.000000
    0    0    0  170    8    0.086100    0.000000
    0    0    0  171    8   -0.216219   -0.000000
    0    0    0  172    8   -1.357341   -0.000000
    0    0    0  173    8   -0.187298    0.000000
    0    0    0  174    8    0.019584   -0.000000
    0    0    0  175    8    0.009631    0.000000
    0    0    0  176    8    0.075442   -0.000000
    0    0    0  177    8    0.174706    0.000000
    0    0    0  178    8   -0.015803   -0.000000
    0    0    0  179    8   -0.036253    0.000000
    0    0    0  180    8   -0.032736   -0.000000
    0    0    0  181    8    0.007074   -0.000000
    0    0    0  182    8   -0.007148    0.000000
    0    0    0  183    8   -0.015602    0.000000
    0    0    0  184    8    0.028362   -0.000000
    0    0    0  185    8    0.038201   -0.000000
    0    0    0  186    8    0.032465    0.000000
    0    0    0  187    8    0.026864    0.000000
    0    0    0  188    8    0.016588   -0.000000
    0    0    0  189    8   -0.079422   -0.000000
    0    0    0  190    8    0.045668   -0.000000
    0    0    0  191    8    0.043235    0.000000
    0    0    0    1    9    0.010904   -0.000000
    0    0    0    2    9   -0.073225    0.000000
    0    0    0    3    9   -0.107479    0.000000
    0    0    0    4    9   -0.129266   -0.000000
    0    0    0    5    9   -0.214746    0.000000
    0    0    0    6    9   -0.038729    0.000000
    0    0    0    7    9   -0.187194    0.000000
    0    0    0    8    9    0.156679   -0.000000
    0    0    0    9    9    0.180488   -0.000000
    0    0    0   10    9   -0.131590   -0.000000
    0    0    0   11    9   -0.036507    0.000000
    0    0    0   12    9    0.047416   -0.000000
    0    0    0   13    9   -0.026756   -0.000000
    0    0    0   14    9   -0.238162    0.000000
    0    0    0   15    9    0.138440   -0.000000
    0    0    0   16    9    0.021542    0.000000
    0    0    0   17    9    0.004616   -0.000000
    0    0    0   18    9    0.006548    0.000000
    0    0    0   19    9    0.012304    0.000000
    0    0    0   20    9   -0.002838    0.000000
    0    0    0   21    9    0.000966   -0.000000
    0    0    0   22    9   -0.003463    0.000000
    0    0    0   23    9    0.014564    0.000000
    0    0    0   24    9    0.005498   -0.000000
    0    0    0   25    9   -0.014627    0.000000
    0    0    0   26    9    0.030051    0.000000
    0    0    0   27    9   -0.006184   -0.000000
    0    0    0   28    9   -0.054115   -0.000000
    0    0    0   29    9    0.000783   -0.000000
    0    0    0   30    9    0.014462    0.000000
    0    0    0   31    9   -0.002860   -0.000000
    0    0    0   32    9    0.056017   -0.000000
    0    0    0   33    9    0.017570   -0.000000
    0    0    0   34    9    0.061384   -0.000000
    0    0    0   35    9   -0.056775   -0.000000
    0    0    0   36    9   -0.012574   -0.000000
    0    0    0   37    9    0.013395   -0.000000
    0    0    0   38    9    0.011936   -0.000000
    0    0    0   39    9   -0.001649    0.000000
    0    0    0   40    9    0.000181   -0.000000
    0    0    0   41    9   -0.009715    0.000000
    0    0    0   42    9    0.092531    0.000000
    0    0    0   43    9    0.094988    0.000000
    0    0    0   44    9   -0.083788   -0.000000
    0    0    0   45    9   -0.055400    0.000000
    0    0    0   46    9   -0.428313    0.000000
    0    0    0   47    9    0.292595   -0.000000
    0    0    0   48    9    0.092537    0.000000
    0    0    0   49    9   -0.139067    0.000000
    0    0    0   50    9   -0.136823    0.000000
    0    0    0   51    9   -0.120759   -0.000000
    0    0    0   52    9   -0.009980   -0.000000
    0    0    0   53    9   -0.092669    0.000000
    0    0    0   54    9    0.087009   -0.000000
    0    0    0   55    9   -0.082867    0.000000
    0    0    0   56    9   -0.015292    0.000000
    0    0    0   57    9   -0.037539    0.000000
    0    0    0   58    9   -0.022700    0.000000
    0    0    0   59    9    0.011054   -0.000000
    0    0    0   60    9    0.019951    0.000000
    0    0    0   61    9   -0.017065    0.000000
    0    0    0   62    9   -0.006237   -0.000000
    0    0    0   63    9   -0.043018   -0.000000
    0    0    0   64    9    0.005002    0.000000
    0    0    0   65    9   -0.021985    0.000000
    0    0    0   66    9   -0.014764   -0.000000
    0    0    0   67    9   -0.006599   -0.000000
    0    0    0   68    9   -0.024387   -0.000000
    0    0    0   69    9    0.024562   -0.000000
    0    0    0   70    9    0.010838    0.000000
[...]
    0    0    0  175  189    0.008770    0.000000
    0    0    0  176  189   -0.016232    0.000000
    0    0    0  177  189    0.016781   -0.000000
    0    0    0  178  189    0.017621   -0.000000
    0    0    0  179  189   -0.043526    0.000000
    0    0    0  180  189    0.017271   -0.000000
    0    0    0  181  189    0.004987    0.000000
    0    0    0  182  189    0.078337   -0.000000
    0    0    0  183  189   -0.070228   -0.000000
    0    0    0  184  189    0.010895    0.000000
    0    0    0  185  189   -0.056956   -0.000000
    0    0    0  186  189    0.669148   -0.000000
    0    0    0  187  189   -0.247086    0.000000
    0    0    0  188  189   -0.139251    0.000000
    0    0    0  189  189   -3.320014    0.000000
    0    0    0  190  189   -0.082817   -0.000000
    0    0    0  191  189   -0.064540   -0.000000
    0    0    0    1  190    0.021908   -0.000000
    0    0    0    2  190   -0.866086   -0.000000
    0    0    0    3  190   -0.282591    0.000000
    0    0    0    4  190    0.721474    0.000000
    0    0    0    5  190   -0.470598    0.000000
    0    0    0    6  190    0.016656    0.000000
    0    0    0    7  190   -0.000060    0.000000
    0    0    0    8  190    0.045668    0.000000
    0    0    0    9  190    0.045168   -0.000000
    0    0    0   10  190   -0.092162   -0.000000
    0    0    0   11  190    0.049557   -0.000000
    0    0    0   12  190    0.075643    0.000000
    0    0    0   13  190    0.001198   -0.000000
    0    0    0   14  190   -0.104610   -0.000000
    0    0    0   15  190   -0.066194   -0.000000
    0    0    0   16  190    0.001277   -0.000000
    0    0    0   17  190   -0.007775    0.000000
    0    0    0   18  190    0.005954    0.000000
    0    0    0   19  190   -0.009654   -0.000000
    0    0    0   20  190   -0.006479    0.000000
    0    0    0   21  190    0.001627   -0.000000
    0    0    0   22  190    0.003597   -0.000000
    0    0    0   23  190   -0.058326   -0.000000
    0    0    0   24  190   -0.011421    0.000000
    0    0    0   25  190   -0.055509    0.000000
    0    0    0   26  190   -0.008692    0.000000
    0    0    0   27  190   -0.001691    0.000000
    0    0    0   28  190   -0.033438    0.000000
    0    0    0   29  190   -0.024003    0.000000
    0    0    0   30  190    0.038287   -0.000000
    0    0    0   31  190   -0.002822    0.000000
    0    0    0   32  190   -0.017288   -0.000000
    0    0    0   33  190   -0.022280    0.000000
    0    0    0   34  190   -0.001465   -0.000000
    0    0    0   35  190    0.021045   -0.000000
    0    0    0   36  190   -0.014207    0.000000
    0    0    0   37  190    0.015345    0.000000
    0    0    0   38  190   -0.014431   -0.000000
    0    0    0   39  190   -0.003248    0.000000
    0    0    0   40  190    0.001675    0.000000
    0    0    0   41  190   -0.001397   -0.000000
    0    0    0   42  190    0.015594    0.000000
    0    0    0   43  190    0.044284    0.000000
    0    0    0   44  190   -0.004786   -0.000000
    0    0    0   45  190   -0.016282   -0.000000
    0    0    0   46  190   -0.004148   -0.000000
    0    0    0   47  190   -0.008704   -0.000000
    0    0    0   48  190   -0.000774   -0.000000
    0    0    0   49  190    0.013152    0.000000
    0    0    0   50  190    0.012596   -0.000000
    0    0    0   51  190    0.000805   -0.000000
    0    0    0   52  190   -0.006867    0.000000
    0    0    0   53  190   -0.007673    0.000000
    0    0    0   54  190    0.002124   -0.000000
    0    0    0   55  190   -0.264226    0.000000
    0    0    0   56  190   -0.090338    0.000000
    0    0    0   57  190   -0.247359    0.000000
    0    0    0   58  190    0.242267    0.000000
    0    0    0   59  190    0.528204    0.000000
    0    0    0   60  190    0.692259    0.000000
    0    0    0   61  190   -0.024197   -0.000000
    0    0    0   62  190   -0.027216    0.000000
    0    0    0   63  190    0.047970    0.000000
    0    0    0   64  190    0.022717    0.000000
    0    0    0   65  190   -0.045387    0.000000
    0    0    0   66  190    0.007276   -0.000000
    0    0    0   67  190   -0.004359    0.000000
    0    0    0   68  190    0.003613   -0.000000
    0    0    0   69  190    0.008235    0.000000
    0    0    0   70  190    0.012007    0.000000
    0    0    0   71  190   -0.066632    0.000000
    0    0    0   72  190    0.006860   -0.000000
    0    0    0   73  190    0.011767   -0.000000
    0    0    0   74  190    0.047875    0.000000
    0    0    0   75  190   -0.019070    0.000000
    0    0    0   76  190    0.149820    0.000000
    0    0    0   77  190    1.289780   -0.000000
    0    0    0   78  190   -0.781894    0.000000
    0    0    0   79  190   -0.258193    0.000000
    0    0    0   80  190    0.601675    0.000000
    0    0    0   81  190   -0.024276   -0.000000
    0    0    0   82  190   -0.000821    0.000000
    0    0    0   83  190    0.016478    0.000000
    0    0    0   84  190   -0.064586    0.000000
    0    0    0   85  190   -0.037864   -0.000000
    0    0    0   86  190    0.002975   -0.000000
    0    0    0   87  190    0.027990   -0.000000
    0    0    0   88  190   -0.002582   -0.000000
    0    0    0   89  190    0.129445   -0.000000
    0    0    0   90  190    0.004565   -0.000000
    0    0    0   91  190    0.821186   -0.000000
    0    0    0   92  190    0.073909    0.000000
    0    0    0   93  190    0.397693    0.000000
    0    0    0   94  190   -0.153451    0.000000
    0    0    0   95  190   -0.015242   -0.000000
    0    0    0   96  190   -0.023324    0.000000
    0    0    0   97  190   -0.010052    0.000000
    0    0    0   98  190   -0.007964    0.000000
    0    0    0   99  190    0.008747    0.000000
    0    0    0  100  190    0.038476   -0.000000
    0    0    0  101  190   -0.053001    0.000000
    0    0    0  102  190    0.009725   -0.000000
    0    0    0  103  190    0.003991    0.000000
    0    0    0  104  190   -0.016585    0.000000
    0    0    0  105  190   -0.017280   -0.000000
    0    0    0  106  190   -0.011409    0.000000
    0    0    0  107  190   -0.031002   -0.000000
    0    0    0  108  190    0.000576    0.000000
    0    0    0  109  190    0.010683    0.000000
    0    0    0  110  190   -0.002113    0.000000
    0    0    0  111  190   -0.006070    0.000000
    0    0    0  112  190    0.012129    0.000000
    0    0    0  113  190    0.025820    0.000000
    0    0    0  114  190    0.006279    0.000000
    0    0    0  115  190    0.013585    0.000000
    0    0    0  116  190    0.010040    0.000000
    0    0    0  117  190   -0.020333    0.000000
    0    0    0  118  190   -0.033716   -0.000000
    0    0    0  119  190    0.000433   -0.000000
    0    0    0  120  190   -0.006054    0.000000
    0    0    0  121  190    0.015929    0.000000
    0    0    0  122  190   -0.101801    0.000000
    0    0    0  123  190    0.090719    0.000000
    0    0    0  124  190    0.003670    0.000000
    0    0    0  125  190    0.251056    0.000000
    0    0    0  126  190    0.067755   -0.000000
    0    0    0  127  190   -0.058322    0.000000
    0    0    0  128  190   -0.029022   -0.000000
    0    0    0  129  190   -0.066704   -0.000000
    0    0    0  130  190    0.719652    0.000000
    0    0    0  131  190   -0.066473   -0.000000
    0    0    0  132  190   -0.016685    0.000000
    0    0    0  133  190    0.011617   -0.000000
    0    0    0  134  190    0.003221    0.000000
    0    0    0  135  190    0.005949   -0.000000
    0    0    0  136  190   -0.025130   -0.000000
    0    0    0  137  190    0.004546   -0.000000
    0    0    0  138  190    0.046683   -0.000000
    0    0    0  139  190   -0.020852    0.000000
    0    0    0  140  190   -0.010872    0.000000
    0    0    0  141  190    0.004469    0.000000
    0    0    0  142  190    0.012140    0.000000
    0    0    0  143  190   -0.013339   -0.000000
    0    0    0  144  190   -0.069486   -0.000000
    0    0    0  145  190    0.057838    0.000000
    0    0    0  146  190    0.061725   -0.000000
    0    0    0  147  190    0.129078   -0.000000
    0    0    0  148  190    0.136330    0.000000
    0    0    0  149  190   -0.030034   -0.000000
    0    0    0  150  190    0.084126   -0.000000
    0    0    0  151  190    0.051379   -0.000000
    0    0    0  152  190    0.055156   -0.000000
    0    0    0  153  190    0.101270   -0.000000
    0    0    0  154  190    0.085692   -0.000000
    0    0    0  155  190   -0.254907    0.000000
    0    0    0  156  190    0.003417    0.000000
    0    0    0  157  190    0.015592   -0.000000
    0    0    0  158  190    0.011247    0.000000
    0    0    0  159  190   -0.012484   -0.000000
    0    0    0  160  190    0.003266    0.000000
    0    0    0  161  190    0.030414   -0.000000
    0    0    0  162  190   -0.002839   -0.000000
    0    0    0  163  190    0.010032   -0.000000
    0    0    0  164  190    0.005389   -0.000000
    0    0    0  165  190   -0.084815    0.000000
    0    0    0  166  190    0.106715    0.000000
    0    0    0  167  190    0.006825   -0.000000
    0    0    0  168  190   -0.073171   -0.000000
    0    0    0  169  190    0.082957   -0.000000
    0    0    0  170  190   -0.058022    0.000000
    0    0    0  171  190    0.331546    0.000000
    0    0    0  172  190    0.235475   -0.000000
    0    0    0  173  190    0.025726   -0.000000
    0    0    0  174  190    0.016806    0.000000
    0    0    0  175  190   -0.012789    0.000000
    0    0    0  176  190   -0.005444    0.000000
    0    0    0  177  190   -0.014698   -0.000000
    0    0    0  178  190   -0.006571   -0.000000
    0    0    0  179  190   -0.012185   -0.000000
    0    0    0  180  190    0.018696    0.000000
    0    0    0  181  190    0.081302    0.000000
    0    0    0  182  190    0.038427    0.000000
    0    0    0  183  190    0.123816   -0.000000
    0    0    0  184  190    0.170990   -0.000000
    0    0    0  185  190   -0.566774    0.000000
    0    0    0  186  190   -0.618486    0.000000
    0    0    0  187  190   -0.205647   -0.000000
    0    0    0  188  190    0.069329    0.000000
    0    0    0  189  190   -0.082817    0.000000
    0    0    0  190  190   -2.874955    0.000000
    0    0    0  191  190   -0.204034   -0.000000
    0    0    0    1  191    0.026937    0.000000
    0    0    0    2  191   -0.525043    0.000000
    0    0    0    3  191   -0.475405    0.000000
    0    0    0    4  191   -1.052630    0.000000
    0    0    0    5  191    0.252474   -0.000000
    0    0    0    6  191   -0.000298   -0.000000
    0    0    0    7  191    0.001631    0.000000
    0    0    0    8  191    0.043235   -0.000000
    0    0    0    9  191   -0.001626    0.000000
    0    0    0   10  191   -0.018849   -0.000000
    0    0    0   11  191    0.011969    0.000000
    0    0    0   12  191   -0.068602    0.000000
    0    0    0   13  191    0.019001    0.000000
    0    0    0   14  191    0.026643   -0.000000
    0    0    0   15  191    0.025653    0.000000
    0    0    0   16  191   -0.001860   -0.000000
    0    0    0   17  191    0.005393    0.000000
    0    0    0   18  191   -0.014136   -0.000000
    0    0    0   19  191    0.013892    0.000000
    0    0    0   20  191   -0.006627   -0.000000
    0    0    0   21  191   -0.001285    0.000000
    0    0    0   22  191   -0.003186   -0.000000
    0    0    0   23  191    0.015667   -0.000000
    0    0    0   24  191   -0.029331    0.000000
    0    0    0   25  191   -0.058675   -0.000000
    0    0    0   26  191   -0.039221   -0.000000
    0    0    0   27  191    0.014143   -0.000000
    0    0    0   28  191   -0.001553    0.000000
    0    0    0   29  191   -0.031719    0.000000
    0    0    0   30  191    0.036058    0.000000
    0    0    0   31  191    0.000045    0.000000
    0    0    0   32  191   -0.004106    0.000000
    0    0    0   33  191   -0.017459   -0.000000
    0    0    0   34  191    0.011963   -0.000000
    0    0    0   35  191    0.013926    0.000000
    0    0    0   36  191    0.001057    0.000000
    0    0    0   37  191    0.053625   -0.000000
    0    0    0   38  191    0.010182   -0.000000
    0    0    0   39  191   -0.007550   -0.000000
    0    0    0   40  191   -0.004384    0.000000
    0    0    0   41  191   -0.014227   -0.000000
    0    0    0   42  191   -0.001591   -0.000000
    0    0    0   43  191    0.003603   -0.000000
    0    0    0   44  191   -0.003576    0.000000
    0    0    0   45  191    0.011183   -0.000000
    0    0    0   46  191   -0.009857    0.000000
    0    0    0   47  191   -0.008387   -0.000000
    0    0    0   48  191   -0.010987   -0.000000
    0    0    0   49  191    0.005613   -0.000000
    0    0    0   50  191   -0.004174    0.000000
    0    0    0   51  191    0.005366   -0.000000
    0    0    0   52  191   -0.014042    0.000000
    0    0    0   53  191    0.006946   -0.000000
    0    0    0   54  191   -0.035933    0.000000
    0    0    0   55  191   -0.150436    0.000000
    0    0    0   56  191   -0.204263   -0.000000
    0    0    0   57  191   -0.224675    0.000000
    0    0    0   58  191    1.497763   -0.000000
    0    0    0   59  191    0.439968    0.000000
    0    0    0   60  191   -0.226757    0.000000
    0    0    0   61  191    0.016900    0.000000
    0    0    0   62  191    0.009228    0.000000
    0    0    0   63  191   -0.000947    0.000000
    0    0    0   64  191   -0.037736   -0.000000
    0    0    0   65  191    0.165160    0.000000
    0    0    0   66  191    0.005110    0.000000
    0    0    0   67  191   -0.003843    0.000000
    0    0    0   68  191    0.001437    0.000000
    0    0    0   69  191    0.011881   -0.000000
    0    0    0   70  191    0.002754   -0.000000
    0    0    0   71  191    0.000938   -0.000000
    0    0    0   72  191   -0.037256   -0.000000
    0    0    0   73  191    0.010490    0.000000
    0    0    0   74  191    0.030557   -0.000000
    0    0    0   75  191    0.000831    0.000000
    0    0    0   76  191    0.098063   -0.000000
    0    0    0   77  191   -0.376633    0.000000
    0    0    0   78  191   -0.197299    0.000000
    0    0    0   79  191    0.690490   -0.000000
    0    0    0   80  191    0.315581    0.000000
    0    0    0   81  191    0.001746   -0.000000
    0    0    0   82  191   -0.041738    0.000000
    0    0    0   83  191    0.022921   -0.000000
    0    0    0   84  191   -0.021989    0.000000
    0    0    0   85  191   -0.001737    0.000000
    0    0    0   86  191   -0.021488   -0.000000
    0    0    0   87  191    0.007075   -0.000000
    0    0    0   88  191   -0.033917   -0.000000
    0    0    0   89  191   -0.111211    0.000000
    0    0    0   90  191    0.014508   -0.000000
    0    0    0   91  191    0.120151    0.000000
    0    0    0   92  191    0.256729   -0.000000
    0    0    0   93  191   -0.422599   -0.000000
    0    0    0   94  191    0.749733    0.000000
    0    0    0   95  191   -0.446884   -0.000000
    0    0    0   96  191   -0.011795    0.000000
    0    0    0   97  191   -0.005923    0.000000
    0    0    0   98  191   -0.004821   -0.000000
    0    0    0   99  191    0.002961    0.000000
    0    0    0  100  191   -0.056226   -0.000000
    0    0    0  101  191    0.097413    0.000000
    0    0    0  102  191    0.014501   -0.000000
    0    0    0  103  191   -0.003142    0.000000
    0    0    0  104  191   -0.004504    0.000000
    0    0    0  105  191   -0.006454   -0.000000
    0    0    0  106  191   -0.004121   -0.000000
    0    0    0  107  191    0.000998   -0.000000
    0    0    0  108  191   -0.005432   -0.000000
    0    0    0  109  191    0.001308   -0.000000
    0    0    0  110  191   -0.002911   -0.000000
    0    0    0  111  191   -0.000763    0.000000
    0    0    0  112  191    0.051921    0.000000
    0    0    0  113  191    0.088068   -0.000000
    0    0    0  114  191   -0.020994    0.000000
    0    0    0  115  191    0.003935   -0.000000
    0    0    0  116  191    0.004144    0.000000
    0    0    0  117  191    0.012041   -0.000000
    0    0    0  118  191   -0.000046    0.000000
    0    0    0  119  191   -0.023841    0.000000
    0    0    0  120  191    0.087908    0.000000
    0    0    0  121  191   -0.064261    0.000000
    0    0    0  122  191    0.011816   -0.000000
    0    0    0  123  191    0.133072    0.000000
    0    0    0  124  191    0.339553   -0.000000
    0    0    0  125  191    0.622827   -0.000000
    0    0    0  126  191   -0.027623   -0.000000
    0    0    0  127  191   -0.054928    0.000000
    0    0    0  128  191    0.080344   -0.000000
    0    0    0  129  191    0.030440    0.000000
    0    0    0  130  191   -0.070730   -0.000000
    0    0    0  131  191   -0.103323    0.000000
    0    0    0  132  191    0.023777    0.000000
    0    0    0  133  191    0.011995    0.000000
    0    0    0  134  191    0.008361    0.000000
    0    0    0  135  191   -0.017613   -0.000000
    0    0    0  136  191   -0.008298   -0.000000
    0    0    0  137  191   -0.029756   -0.000000
    0    0    0  138  191    0.020752   -0.000000
    0    0    0  139  191   -0.016377    0.000000
    0    0    0  140  191    0.000644    0.000000
    0    0    0  141  191   -0.006938    0.000000
    0    0    0  142  191   -0.003620   -0.000000
    0    0    0  143  191   -0.007385    0.000000
    0    0    0  144  191   -0.035292   -0.000000
    0    0    0  145  191   -0.055002    0.000000
    0    0    0  146  191    0.077630   -0.000000
    0    0    0  147  191    0.321049   -0.000000
    0    0    0  148  191    0.175734    0.000000
    0    0    0  149  191    0.274698    0.000000
    0    0    0  150  191   -0.030423    0.000000
    0    0    0  151  191    0.050279    0.000000
    0    0    0  152  191    0.042470   -0.000000
    0    0    0  153  191    0.063618    0.000000
    0    0    0  154  191   -0.526952    0.000000
    0    0    0  155  191    0.536285    0.000000
    0    0    0  156  191   -0.001027    0.000000
    0    0    0  157  191    0.006395   -0.000000
    0    0    0  158  191    0.014902    0.000000
    0    0    0  159  191   -0.013056    0.000000
    0    0    0  160  191    0.013006    0.000000
    0    0    0  161  191   -0.027685   -0.000000
    0    0    0  162  191   -0.001387    0.000000
    0    0    0  163  191    0.000095   -0.000000
    0    0    0  164  191    0.017854    0.000000
    0    0    0  165  191   -0.000219   -0.000000
    0    0    0  166  191   -0.017305   -0.000000
    0    0    0  167  191   -0.008269   -0.000000
    0    0    0  168  191   -0.032413    0.000000
    0    0    0  169  191    0.059247    0.000000
    0    0    0  170  191    0.051739    0.000000
    0    0    0  171  191    0.023059   -0.000000
    0    0    0  172  191   -0.163114    0.000000
    0    0    0  173  191    0.047238   -0.000000
    0    0    0  174  191    0.002380    0.000000
    0    0    0  175  191   -0.008156   -0.000000
    0    0    0  176  191    0.007460   -0.000000
    0    0    0  177  191   -0.010598   -0.000000
    0    0    0  178  191   -0.022659    0.000000
    0    0    0  179  191    0.016472   -0.000000
    0    0    0  180  191    0.073161   -0.000000
    0    0    0  181  191    0.038276    0.000000
    0    0    0  182  191    0.008903   -0.000000
    0    0    0  183  191    0.038161   -0.000000
    0    0    0  184  191   -0.299906   -0.000000
    0    0    0  185  191    0.465254    0.000000
    0    0    0  186  191   -0.419992   -0.000000
    0    0    0  187  191    0.026966    0.000000
    0    0    0  188  191   -0.222923    0.000000
    0    0    0  189  191   -0.064540    0.000000
    0    0    0  190  191   -0.204034    0.000000
    0    0    0  191  191   -2.700616    0.000000
