 
             +---------------------------------------------------+
             |                                                   |
             |                   WANNIER90                       |
             |                                                   |
             +---------------------------------------------------+
             |                                                   |
             |        Welcome to the Maximally-Localized         |
             |        Generalized Wannier Functions code         |
             |            http://www.wannier.org                 |
             |                                                   |
             |                                                   |
             |  Wannier90 Developer Group:                       |
             |    Giovanni Pizzi    (EPFL)                       |
             |    Valerio Vitale    (Cambridge)                  |
             |    David Vanderbilt  (Rutgers University)         |
             |    Nicola Marzari    (EPFL)                       |
             |    Ivo Souza         (Universidad del Pais Vasco) |
             |    Arash A. Mostofi  (Imperial College London)    |
             |    Jonathan R. Yates (University of Oxford)       |
             |                                                   |
             |  For the full list of Wannier90 3.x authors,      |
             |  please check the code documentation and the      |
             |  README on the GitHub page of the code            |
             |                                                   |
             |                                                   |
             |  Please cite                                      |
             |                                                   |
             |  [ref] "Wannier90 as a community code:            |
             |        new features and applications",            |
             |        G. Pizzi et al., J. Phys. Cond. Matt. 32,  |
             |        165902 (2020).                             |
             |        http://doi.org/10.1088/1361-648X/ab51ff    |
             |                                                   |
             |  in any publications arising from the use of      |
             |  this code. For the method please cite            |
             |                                                   |
             |  [ref] "Maximally Localized Generalised Wannier   |
             |         Functions for Composite Energy Bands"     |
             |         N. Marzari and D. Vanderbilt              |
             |         Phys. Rev. B 56 12847 (1997)              |
             |                                                   |
             |  [ref] "Maximally Localized Wannier Functions     |
             |         for Entangled Energy Bands"               |
             |         I. Souza, N. Marzari and D. Vanderbilt    |
             |         Phys. Rev. B 65 035109 (2001)             |
             |                                                   |
             |                                                   |
             | Copyright (c) 1996-2020                           |
             |        The Wannier90 Developer Group and          |
             |        individual contributors                    |
             |                                                   |
             |      Release: 3.1.0        5th March    2020      |
             |                                                   |
             | This program is free software; you can            |
             | redistribute it and/or modify it under the terms  |
             | of the GNU General Public License as published by |
             | the Free Software Foundation; either version 2 of |
             | the License, or (at your option) any later version|
             |                                                   |
             | This program is distributed in the hope that it   |
             | will be useful, but WITHOUT ANY WARRANTY; without |
             | even the implied warranty of MERCHANTABILITY or   |
             | FITNESS FOR A PARTICULAR PURPOSE. See the GNU     |
             | General Public License for more details.          |
             |                                                   |
             | You should have received a copy of the GNU General|
             | Public License along with this program; if not,   |
             | write to the Free Software Foundation, Inc.,      |
             | 675 Mass Ave, Cambridge, MA 02139, USA.           |
             |                                                   |
             +---------------------------------------------------+
             |    Execution started on 20Jul2023 at 20:15:26     |
             +---------------------------------------------------+
 
 ******************************************************************************
 * -> Using CODATA 2006 constant values                                       *
 *    (http://physics.nist.gov/cuu/Constants/index.html)                      *
 * -> Using Bohr value from CODATA                                            *
 ******************************************************************************
 

 Running in parallel on  80 CPUs

 
                                    ------
                                    SYSTEM
                                    ------
 
                              Lattice Vectors (Ang)
                    a_1    13.784171   0.000000   0.000000
                    a_2    -6.892085  11.937442   0.000000
                    a_3     0.000000   0.000000  23.631430
 
                   Unit Cell Volume:    3888.49848  (Ang^3)
 
                        Reciprocal-Space Vectors (Ang^-1)
                    b_1     0.455826   0.263171   0.000000
                    b_2     0.000000   0.526343   0.000000
                    b_3     0.000000   0.000000   0.265883
  
 *----------------------------------------------------------------------------*
 |   Site       Fractional Coordinate          Cartesian Coordinate (Ang)     |
 +----------------------------------------------------------------------------+
 | Cr   1   0.33333   0.66667   0.16685   |   -0.00000   7.95829   3.94299    |
 | Cr   2   0.58000   0.66667   0.16685   |    3.40010   7.95829   3.94299    |
 | Cr   3   0.85000   0.66667   0.16685   |    7.12182   7.95829   3.94299    |
 | Nb   1   0.00000   0.00000   0.07170   |    0.00000   0.00000   1.69430    |
 | Nb   2   0.25189   0.00024   0.07201   |    3.47040   0.00287   1.70173    |
 | Nb   3   0.50228   0.00457   0.07084   |    6.89209   0.05454   1.67414    |
 | Nb   4   0.74835   0.00024   0.07201   |   10.31377   0.00287   1.70173    |
 | Nb   5   0.74850   0.25150   0.06828   |    8.58404   3.00230   1.61367    |
 | Nb   6   0.74850   0.49699   0.06828   |    6.89209   5.93284   1.61367    |
 | Nb   7   0.74835   0.74811   0.07201   |    5.15937   8.93055   1.70173    |
 | Nb   8   0.50032   0.75016   0.07859   |    1.72635   8.95500   1.85709    |
 | Nb   9   0.24984   0.75016   0.07859   |   -1.72635   8.95500   1.85709    |
 | Nb  10  -0.00024   0.74811   0.07201   |   -5.15937   8.93055   1.70173    |
 | Nb  11   0.50301   0.25150   0.06828   |    5.20014   3.00230   1.61367    |
 | Nb  12   0.50228   0.49772   0.07084   |    3.49327   5.94145   1.67414    |
 | Nb  13   0.24984   0.49968   0.07859   |   -0.00000   5.96488   1.85709    |
 | Nb  14   0.25189   0.25165   0.07201   |    1.73769   3.00402   1.70173    |
 | Nb  15  -0.00024   0.25165   0.07201   |   -1.73769   3.00402   1.70173    |
 | Nb  16  -0.00457   0.49772   0.07084   |   -3.49327   5.94145   1.67414    |
 | Se   1   0.16721   0.08361   0.00063   |    1.72866   0.99804   0.01486    |
 | Se   2   0.16690   0.08345   0.14290   |    1.72538   0.99615   3.37693    |
 | Se   3   0.41544   0.08143  -0.00156   |    5.16530   0.97207  -0.03681    |
 | Se   4   0.41911   0.08928   0.14188   |    5.16174   1.06572   3.35289    |
 | Se   5   0.66599   0.08143  -0.00156   |    8.61887   0.97207  -0.03681    |
 | Se   6   0.67017   0.08928   0.14188   |    8.62243   1.06572   3.35289    |
 | Se   7   0.91639   0.08361   0.00063   |   12.05551   0.99804   0.01486    |
 | Se   8   0.91655   0.08345   0.14290   |   12.05879   0.99615   3.37693    |
 | Se   9   0.91857   0.33401  -0.00156   |   10.35968   3.98724  -0.03681    |
 | Se  10   0.91072   0.32983   0.14188   |   10.28036   3.93734   3.35289    |
 | Se  11   0.91857   0.58456  -0.00156   |    8.63289   6.97813  -0.03681    |
 | Se  12   0.91072   0.58089   0.14188   |    8.55002   6.93438   3.35289    |
 | Se  13   0.91639   0.83279   0.00063   |    6.89209   9.94136   0.01486    |
 | Se  14   0.91655   0.83310   0.14290   |    6.89209   9.94514   3.37693    |
 | Se  15   0.66220   0.83110   0.00298   |    3.39989   9.92122   0.07043    |
 | Se  16   0.67172   0.83586   0.14547   |    3.49824   9.97800   3.43758    |
 | Se  17   0.41489   0.82979   0.00560   |    0.00000   9.90552   0.13226    |
 | Se  18   0.42825   0.85651   0.14992   |    0.00000  10.22450   3.54287    |
 | Se  19   0.16890   0.83110   0.00298   |   -3.39989   9.92122   0.07043    |
 | Se  20   0.16414   0.83586   0.14547   |   -3.49824   9.97800   3.43758    |
 | Se  21   0.66667   0.33333  -0.00432   |    6.89209   3.97915  -0.10210    |
 | Se  22   0.66667   0.33333   0.14105   |    6.89209   3.97915   3.33317    |
 | Se  23   0.66599   0.58456  -0.00156   |    5.15128   6.97813  -0.03681    |
 | Se  24   0.67017   0.58089   0.14188   |    5.23415   6.93438   3.35289    |
 | Se  25   0.41489   0.58511   0.00560   |    1.68635   6.98468   0.13226    |
 | Se  26   0.42825   0.57175   0.14992   |    1.96259   6.82519   3.54287    |
 | Se  27   0.41544   0.33401  -0.00156   |    3.42449   3.98724  -0.03681    |
 | Se  28   0.41911   0.32983   0.14188   |    3.50381   3.93734   3.35289    |
 | Se  29   0.16890   0.33780   0.00298   |    0.00000   4.03244   0.07043    |
 | Se  30   0.16414   0.32828   0.14547   |    0.00000   3.91888   3.43758    |
 | Se  31   0.17021   0.58511   0.00560   |   -1.68635   6.98468   0.13226    |
 | Se  32   0.14349   0.57175   0.14992   |   -1.96259   6.82519   3.54287    |
 *----------------------------------------------------------------------------*
                                -----------
                                PROJECTIONS
                                -----------
  
 +----------------------------------------------------------------------------+
 |     Frac. Coord.   l mr  r        z-axis               x-axis          Z/a |
 +----------------------------------------------------------------------------+
 |  0.33  0.67  0.17  2  1  1  0.000  0.000  1.000  1.000  0.000  0.000   1.0 |
 |  0.33  0.67  0.17  2  2  1  0.000  0.000  1.000  1.000  0.000  0.000   1.0 |
 |  0.33  0.67  0.17  2  3  1  0.000  0.000  1.000  1.000  0.000  0.000   1.0 |
 |  0.33  0.67  0.17  2  4  1  0.000  0.000  1.000  1.000  0.000  0.000   1.0 |
 |  0.33  0.67  0.17  2  5  1  0.000  0.000  1.000  1.000  0.000  0.000   1.0 |
 |  0.58  0.67  0.17  2  1  1  0.000  0.000  1.000  1.000  0.000  0.000   1.0 |
 |  0.58  0.67  0.17  2  2  1  0.000  0.000  1.000  1.000  0.000  0.000   1.0 |
 |  0.58  0.67  0.17  2  3  1  0.000  0.000  1.000  1.000  0.000  0.000   1.0 |
 |  0.58  0.67  0.17  2  4  1  0.000  0.000  1.000  1.000  0.000  0.000   1.0 |
 |  0.58  0.67  0.17  2  5  1  0.000  0.000  1.000  1.000  0.000  0.000   1.0 |
 |  0.85  0.67  0.17  2  1  1  0.000  0.000  1.000  1.000  0.000  0.000   1.0 |
 |  0.85  0.67  0.17  2  2  1  0.000  0.000  1.000  1.000  0.000  0.000   1.0 |
 |  0.85  0.67  0.17  2  3  1  0.000  0.000  1.000  1.000  0.000  0.000   1.0 |
 |  0.85  0.67  0.17  2  4  1  0.000  0.000  1.000  1.000  0.000  0.000   1.0 |
 |  0.85  0.67  0.17  2  5  1  0.000  0.000  1.000  1.000  0.000  0.000   1.0 |
 |  0.00  0.00  0.07  2  1  1  0.000  0.000  1.000  1.000  0.000  0.000   1.0 |
 |  0.00  0.00  0.07  2  2  1  0.000  0.000  1.000  1.000  0.000  0.000   1.0 |
 |  0.00  0.00  0.07  2  3  1  0.000  0.000  1.000  1.000  0.000  0.000   1.0 |
 |  0.00  0.00  0.07  2  4  1  0.000  0.000  1.000  1.000  0.000  0.000   1.0 |
 |  0.00  0.00  0.07  2  5  1  0.000  0.000  1.000  1.000  0.000  0.000   1.0 |
 |  0.25  0.00  0.07  2  1  1  0.000  0.000  1.000  1.000  0.000  0.000   1.0 |
 |  0.25  0.00  0.07  2  2  1  0.000  0.000  1.000  1.000  0.000  0.000   1.0 |
 |  0.25  0.00  0.07  2  3  1  0.000  0.000  1.000  1.000  0.000  0.000   1.0 |
 |  0.25  0.00  0.07  2  4  1  0.000  0.000  1.000  1.000  0.000  0.000   1.0 |
 |  0.25  0.00  0.07  2  5  1  0.000  0.000  1.000  1.000  0.000  0.000   1.0 |
 |  0.50  0.00  0.07  2  1  1  0.000  0.000  1.000  1.000  0.000  0.000   1.0 |
 |  0.50  0.00  0.07  2  2  1  0.000  0.000  1.000  1.000  0.000  0.000   1.0 |
 |  0.50  0.00  0.07  2  3  1  0.000  0.000  1.000  1.000  0.000  0.000   1.0 |
 |  0.50  0.00  0.07  2  4  1  0.000  0.000  1.000  1.000  0.000  0.000   1.0 |
 |  0.50  0.00  0.07  2  5  1  0.000  0.000  1.000  1.000  0.000  0.000   1.0 |
 |  0.75  0.00  0.07  2  1  1  0.000  0.000  1.000  1.000  0.000  0.000   1.0 |
 |  0.75  0.00  0.07  2  2  1  0.000  0.000  1.000  1.000  0.000  0.000   1.0 |
 |  0.75  0.00  0.07  2  3  1  0.000  0.000  1.000  1.000  0.000  0.000   1.0 |
 |  0.75  0.00  0.07  2  4  1  0.000  0.000  1.000  1.000  0.000  0.000   1.0 |
 |  0.75  0.00  0.07  2  5  1  0.000  0.000  1.000  1.000  0.000  0.000   1.0 |
 |  0.75  0.25  0.07  2  1  1  0.000  0.000  1.000  1.000  0.000  0.000   1.0 |
 |  0.75  0.25  0.07  2  2  1  0.000  0.000  1.000  1.000  0.000  0.000   1.0 |
 |  0.75  0.25  0.07  2  3  1  0.000  0.000  1.000  1.000  0.000  0.000   1.0 |
 |  0.75  0.25  0.07  2  4  1  0.000  0.000  1.000  1.000  0.000  0.000   1.0 |
 |  0.75  0.25  0.07  2  5  1  0.000  0.000  1.000  1.000  0.000  0.000   1.0 |
 |  0.75  0.50  0.07  2  1  1  0.000  0.000  1.000  1.000  0.000  0.000   1.0 |
 |  0.75  0.50  0.07  2  2  1  0.000  0.000  1.000  1.000  0.000  0.000   1.0 |
 |  0.75  0.50  0.07  2  3  1  0.000  0.000  1.000  1.000  0.000  0.000   1.0 |
 |  0.75  0.50  0.07  2  4  1  0.000  0.000  1.000  1.000  0.000  0.000   1.0 |
 |  0.75  0.50  0.07  2  5  1  0.000  0.000  1.000  1.000  0.000  0.000   1.0 |
 |  0.75  0.75  0.07  2  1  1  0.000  0.000  1.000  1.000  0.000  0.000   1.0 |
 |  0.75  0.75  0.07  2  2  1  0.000  0.000  1.000  1.000  0.000  0.000   1.0 |
 |  0.75  0.75  0.07  2  3  1  0.000  0.000  1.000  1.000  0.000  0.000   1.0 |
 |  0.75  0.75  0.07  2  4  1  0.000  0.000  1.000  1.000  0.000  0.000   1.0 |
 |  0.75  0.75  0.07  2  5  1  0.000  0.000  1.000  1.000  0.000  0.000   1.0 |
 |  0.50  0.75  0.08  2  1  1  0.000  0.000  1.000  1.000  0.000  0.000   1.0 |
 |  0.50  0.75  0.08  2  2  1  0.000  0.000  1.000  1.000  0.000  0.000   1.0 |
 |  0.50  0.75  0.08  2  3  1  0.000  0.000  1.000  1.000  0.000  0.000   1.0 |
 |  0.50  0.75  0.08  2  4  1  0.000  0.000  1.000  1.000  0.000  0.000   1.0 |
 |  0.50  0.75  0.08  2  5  1  0.000  0.000  1.000  1.000  0.000  0.000   1.0 |
 |  0.25  0.75  0.08  2  1  1  0.000  0.000  1.000  1.000  0.000  0.000   1.0 |
 |  0.25  0.75  0.08  2  2  1  0.000  0.000  1.000  1.000  0.000  0.000   1.0 |
 |  0.25  0.75  0.08  2  3  1  0.000  0.000  1.000  1.000  0.000  0.000   1.0 |
 |  0.25  0.75  0.08  2  4  1  0.000  0.000  1.000  1.000  0.000  0.000   1.0 |
 |  0.25  0.75  0.08  2  5  1  0.000  0.000  1.000  1.000  0.000  0.000   1.0 |
 | -0.00  0.75  0.07  2  1  1  0.000  0.000  1.000  1.000  0.000  0.000   1.0 |
 | -0.00  0.75  0.07  2  2  1  0.000  0.000  1.000  1.000  0.000  0.000   1.0 |
 | -0.00  0.75  0.07  2  3  1  0.000  0.000  1.000  1.000  0.000  0.000   1.0 |
 | -0.00  0.75  0.07  2  4  1  0.000  0.000  1.000  1.000  0.000  0.000   1.0 |
 | -0.00  0.75  0.07  2  5  1  0.000  0.000  1.000  1.000  0.000  0.000   1.0 |
 |  0.50  0.25  0.07  2  1  1  0.000  0.000  1.000  1.000  0.000  0.000   1.0 |
 |  0.50  0.25  0.07  2  2  1  0.000  0.000  1.000  1.000  0.000  0.000   1.0 |
 |  0.50  0.25  0.07  2  3  1  0.000  0.000  1.000  1.000  0.000  0.000   1.0 |
 |  0.50  0.25  0.07  2  4  1  0.000  0.000  1.000  1.000  0.000  0.000   1.0 |
 |  0.50  0.25  0.07  2  5  1  0.000  0.000  1.000  1.000  0.000  0.000   1.0 |
 |  0.50  0.50  0.07  2  1  1  0.000  0.000  1.000  1.000  0.000  0.000   1.0 |
 |  0.50  0.50  0.07  2  2  1  0.000  0.000  1.000  1.000  0.000  0.000   1.0 |
 |  0.50  0.50  0.07  2  3  1  0.000  0.000  1.000  1.000  0.000  0.000   1.0 |
 |  0.50  0.50  0.07  2  4  1  0.000  0.000  1.000  1.000  0.000  0.000   1.0 |
 |  0.50  0.50  0.07  2  5  1  0.000  0.000  1.000  1.000  0.000  0.000   1.0 |
 |  0.25  0.50  0.08  2  1  1  0.000  0.000  1.000  1.000  0.000  0.000   1.0 |
 |  0.25  0.50  0.08  2  2  1  0.000  0.000  1.000  1.000  0.000  0.000   1.0 |
 |  0.25  0.50  0.08  2  3  1  0.000  0.000  1.000  1.000  0.000  0.000   1.0 |
 |  0.25  0.50  0.08  2  4  1  0.000  0.000  1.000  1.000  0.000  0.000   1.0 |
 |  0.25  0.50  0.08  2  5  1  0.000  0.000  1.000  1.000  0.000  0.000   1.0 |
 |  0.25  0.25  0.07  2  1  1  0.000  0.000  1.000  1.000  0.000  0.000   1.0 |
 |  0.25  0.25  0.07  2  2  1  0.000  0.000  1.000  1.000  0.000  0.000   1.0 |
 |  0.25  0.25  0.07  2  3  1  0.000  0.000  1.000  1.000  0.000  0.000   1.0 |
 |  0.25  0.25  0.07  2  4  1  0.000  0.000  1.000  1.000  0.000  0.000   1.0 |
 |  0.25  0.25  0.07  2  5  1  0.000  0.000  1.000  1.000  0.000  0.000   1.0 |
 | -0.00  0.25  0.07  2  1  1  0.000  0.000  1.000  1.000  0.000  0.000   1.0 |
 | -0.00  0.25  0.07  2  2  1  0.000  0.000  1.000  1.000  0.000  0.000   1.0 |
 | -0.00  0.25  0.07  2  3  1  0.000  0.000  1.000  1.000  0.000  0.000   1.0 |
 | -0.00  0.25  0.07  2  4  1  0.000  0.000  1.000  1.000  0.000  0.000   1.0 |
 | -0.00  0.25  0.07  2  5  1  0.000  0.000  1.000  1.000  0.000  0.000   1.0 |
 | -0.00  0.50  0.07  2  1  1  0.000  0.000  1.000  1.000  0.000  0.000   1.0 |
 | -0.00  0.50  0.07  2  2  1  0.000  0.000  1.000  1.000  0.000  0.000   1.0 |
 | -0.00  0.50  0.07  2  3  1  0.000  0.000  1.000  1.000  0.000  0.000   1.0 |
 | -0.00  0.50  0.07  2  4  1  0.000  0.000  1.000  1.000  0.000  0.000   1.0 |
 | -0.00  0.50  0.07  2  5  1  0.000  0.000  1.000  1.000  0.000  0.000   1.0 |
 |  0.17  0.08  0.00  1  1  1  0.000  0.000  1.000  1.000  0.000  0.000   1.0 |
 |  0.17  0.08  0.00  1  2  1  0.000  0.000  1.000  1.000  0.000  0.000   1.0 |
 |  0.17  0.08  0.00  1  3  1  0.000  0.000  1.000  1.000  0.000  0.000   1.0 |
 |  0.17  0.08  0.14  1  1  1  0.000  0.000  1.000  1.000  0.000  0.000   1.0 |
 |  0.17  0.08  0.14  1  2  1  0.000  0.000  1.000  1.000  0.000  0.000   1.0 |
 |  0.17  0.08  0.14  1  3  1  0.000  0.000  1.000  1.000  0.000  0.000   1.0 |
 |  0.42  0.08 -0.00  1  1  1  0.000  0.000  1.000  1.000  0.000  0.000   1.0 |
 |  0.42  0.08 -0.00  1  2  1  0.000  0.000  1.000  1.000  0.000  0.000   1.0 |
 |  0.42  0.08 -0.00  1  3  1  0.000  0.000  1.000  1.000  0.000  0.000   1.0 |
 |  0.42  0.09  0.14  1  1  1  0.000  0.000  1.000  1.000  0.000  0.000   1.0 |
 |  0.42  0.09  0.14  1  2  1  0.000  0.000  1.000  1.000  0.000  0.000   1.0 |
 |  0.42  0.09  0.14  1  3  1  0.000  0.000  1.000  1.000  0.000  0.000   1.0 |
 |  0.67  0.08 -0.00  1  1  1  0.000  0.000  1.000  1.000  0.000  0.000   1.0 |
 |  0.67  0.08 -0.00  1  2  1  0.000  0.000  1.000  1.000  0.000  0.000   1.0 |
 |  0.67  0.08 -0.00  1  3  1  0.000  0.000  1.000  1.000  0.000  0.000   1.0 |
 |  0.67  0.09  0.14  1  1  1  0.000  0.000  1.000  1.000  0.000  0.000   1.0 |
 |  0.67  0.09  0.14  1  2  1  0.000  0.000  1.000  1.000  0.000  0.000   1.0 |
 |  0.67  0.09  0.14  1  3  1  0.000  0.000  1.000  1.000  0.000  0.000   1.0 |
 |  0.92  0.08  0.00  1  1  1  0.000  0.000  1.000  1.000  0.000  0.000   1.0 |
 |  0.92  0.08  0.00  1  2  1  0.000  0.000  1.000  1.000  0.000  0.000   1.0 |
 |  0.92  0.08  0.00  1  3  1  0.000  0.000  1.000  1.000  0.000  0.000   1.0 |
 |  0.92  0.08  0.14  1  1  1  0.000  0.000  1.000  1.000  0.000  0.000   1.0 |
 |  0.92  0.08  0.14  1  2  1  0.000  0.000  1.000  1.000  0.000  0.000   1.0 |
 |  0.92  0.08  0.14  1  3  1  0.000  0.000  1.000  1.000  0.000  0.000   1.0 |
 |  0.92  0.33 -0.00  1  1  1  0.000  0.000  1.000  1.000  0.000  0.000   1.0 |
 |  0.92  0.33 -0.00  1  2  1  0.000  0.000  1.000  1.000  0.000  0.000   1.0 |
 |  0.92  0.33 -0.00  1  3  1  0.000  0.000  1.000  1.000  0.000  0.000   1.0 |
 |  0.91  0.33  0.14  1  1  1  0.000  0.000  1.000  1.000  0.000  0.000   1.0 |
 |  0.91  0.33  0.14  1  2  1  0.000  0.000  1.000  1.000  0.000  0.000   1.0 |
 |  0.91  0.33  0.14  1  3  1  0.000  0.000  1.000  1.000  0.000  0.000   1.0 |
 |  0.92  0.58 -0.00  1  1  1  0.000  0.000  1.000  1.000  0.000  0.000   1.0 |
 |  0.92  0.58 -0.00  1  2  1  0.000  0.000  1.000  1.000  0.000  0.000   1.0 |
 |  0.92  0.58 -0.00  1  3  1  0.000  0.000  1.000  1.000  0.000  0.000   1.0 |
 |  0.91  0.58  0.14  1  1  1  0.000  0.000  1.000  1.000  0.000  0.000   1.0 |
 |  0.91  0.58  0.14  1  2  1  0.000  0.000  1.000  1.000  0.000  0.000   1.0 |
 |  0.91  0.58  0.14  1  3  1  0.000  0.000  1.000  1.000  0.000  0.000   1.0 |
 |  0.92  0.83  0.00  1  1  1  0.000  0.000  1.000  1.000  0.000  0.000   1.0 |
 |  0.92  0.83  0.00  1  2  1  0.000  0.000  1.000  1.000  0.000  0.000   1.0 |
 |  0.92  0.83  0.00  1  3  1  0.000  0.000  1.000  1.000  0.000  0.000   1.0 |
 |  0.92  0.83  0.14  1  1  1  0.000  0.000  1.000  1.000  0.000  0.000   1.0 |
 |  0.92  0.83  0.14  1  2  1  0.000  0.000  1.000  1.000  0.000  0.000   1.0 |
 |  0.92  0.83  0.14  1  3  1  0.000  0.000  1.000  1.000  0.000  0.000   1.0 |
 |  0.66  0.83  0.00  1  1  1  0.000  0.000  1.000  1.000  0.000  0.000   1.0 |
 |  0.66  0.83  0.00  1  2  1  0.000  0.000  1.000  1.000  0.000  0.000   1.0 |
 |  0.66  0.83  0.00  1  3  1  0.000  0.000  1.000  1.000  0.000  0.000   1.0 |
 |  0.67  0.84  0.15  1  1  1  0.000  0.000  1.000  1.000  0.000  0.000   1.0 |
 |  0.67  0.84  0.15  1  2  1  0.000  0.000  1.000  1.000  0.000  0.000   1.0 |
 |  0.67  0.84  0.15  1  3  1  0.000  0.000  1.000  1.000  0.000  0.000   1.0 |
 |  0.41  0.83  0.01  1  1  1  0.000  0.000  1.000  1.000  0.000  0.000   1.0 |
 |  0.41  0.83  0.01  1  2  1  0.000  0.000  1.000  1.000  0.000  0.000   1.0 |
 |  0.41  0.83  0.01  1  3  1  0.000  0.000  1.000  1.000  0.000  0.000   1.0 |
 |  0.43  0.86  0.15  1  1  1  0.000  0.000  1.000  1.000  0.000  0.000   1.0 |
 |  0.43  0.86  0.15  1  2  1  0.000  0.000  1.000  1.000  0.000  0.000   1.0 |
 |  0.43  0.86  0.15  1  3  1  0.000  0.000  1.000  1.000  0.000  0.000   1.0 |
 |  0.17  0.83  0.00  1  1  1  0.000  0.000  1.000  1.000  0.000  0.000   1.0 |
 |  0.17  0.83  0.00  1  2  1  0.000  0.000  1.000  1.000  0.000  0.000   1.0 |
 |  0.17  0.83  0.00  1  3  1  0.000  0.000  1.000  1.000  0.000  0.000   1.0 |
 |  0.16  0.84  0.15  1  1  1  0.000  0.000  1.000  1.000  0.000  0.000   1.0 |
 |  0.16  0.84  0.15  1  2  1  0.000  0.000  1.000  1.000  0.000  0.000   1.0 |
 |  0.16  0.84  0.15  1  3  1  0.000  0.000  1.000  1.000  0.000  0.000   1.0 |
 |  0.67  0.33 -0.00  1  1  1  0.000  0.000  1.000  1.000  0.000  0.000   1.0 |
 |  0.67  0.33 -0.00  1  2  1  0.000  0.000  1.000  1.000  0.000  0.000   1.0 |
 |  0.67  0.33 -0.00  1  3  1  0.000  0.000  1.000  1.000  0.000  0.000   1.0 |
 |  0.67  0.33  0.14  1  1  1  0.000  0.000  1.000  1.000  0.000  0.000   1.0 |
 |  0.67  0.33  0.14  1  2  1  0.000  0.000  1.000  1.000  0.000  0.000   1.0 |
 |  0.67  0.33  0.14  1  3  1  0.000  0.000  1.000  1.000  0.000  0.000   1.0 |
 |  0.67  0.58 -0.00  1  1  1  0.000  0.000  1.000  1.000  0.000  0.000   1.0 |
 |  0.67  0.58 -0.00  1  2  1  0.000  0.000  1.000  1.000  0.000  0.000   1.0 |
 |  0.67  0.58 -0.00  1  3  1  0.000  0.000  1.000  1.000  0.000  0.000   1.0 |
 |  0.67  0.58  0.14  1  1  1  0.000  0.000  1.000  1.000  0.000  0.000   1.0 |
 |  0.67  0.58  0.14  1  2  1  0.000  0.000  1.000  1.000  0.000  0.000   1.0 |
 |  0.67  0.58  0.14  1  3  1  0.000  0.000  1.000  1.000  0.000  0.000   1.0 |
 |  0.41  0.59  0.01  1  1  1  0.000  0.000  1.000  1.000  0.000  0.000   1.0 |
 |  0.41  0.59  0.01  1  2  1  0.000  0.000  1.000  1.000  0.000  0.000   1.0 |
 |  0.41  0.59  0.01  1  3  1  0.000  0.000  1.000  1.000  0.000  0.000   1.0 |
 |  0.43  0.57  0.15  1  1  1  0.000  0.000  1.000  1.000  0.000  0.000   1.0 |
 |  0.43  0.57  0.15  1  2  1  0.000  0.000  1.000  1.000  0.000  0.000   1.0 |
 |  0.43  0.57  0.15  1  3  1  0.000  0.000  1.000  1.000  0.000  0.000   1.0 |
 |  0.42  0.33 -0.00  1  1  1  0.000  0.000  1.000  1.000  0.000  0.000   1.0 |
 |  0.42  0.33 -0.00  1  2  1  0.000  0.000  1.000  1.000  0.000  0.000   1.0 |
 |  0.42  0.33 -0.00  1  3  1  0.000  0.000  1.000  1.000  0.000  0.000   1.0 |
 |  0.42  0.33  0.14  1  1  1  0.000  0.000  1.000  1.000  0.000  0.000   1.0 |
 |  0.42  0.33  0.14  1  2  1  0.000  0.000  1.000  1.000  0.000  0.000   1.0 |
 |  0.42  0.33  0.14  1  3  1  0.000  0.000  1.000  1.000  0.000  0.000   1.0 |
 |  0.17  0.34  0.00  1  1  1  0.000  0.000  1.000  1.000  0.000  0.000   1.0 |
 |  0.17  0.34  0.00  1  2  1  0.000  0.000  1.000  1.000  0.000  0.000   1.0 |
 |  0.17  0.34  0.00  1  3  1  0.000  0.000  1.000  1.000  0.000  0.000   1.0 |
 |  0.16  0.33  0.15  1  1  1  0.000  0.000  1.000  1.000  0.000  0.000   1.0 |
 |  0.16  0.33  0.15  1  2  1  0.000  0.000  1.000  1.000  0.000  0.000   1.0 |
 |  0.16  0.33  0.15  1  3  1  0.000  0.000  1.000  1.000  0.000  0.000   1.0 |
 |  0.17  0.59  0.01  1  1  1  0.000  0.000  1.000  1.000  0.000  0.000   1.0 |
 |  0.17  0.59  0.01  1  2  1  0.000  0.000  1.000  1.000  0.000  0.000   1.0 |
 |  0.17  0.59  0.01  1  3  1  0.000  0.000  1.000  1.000  0.000  0.000   1.0 |
 |  0.14  0.57  0.15  1  1  1  0.000  0.000  1.000  1.000  0.000  0.000   1.0 |
 |  0.14  0.57  0.15  1  2  1  0.000  0.000  1.000  1.000  0.000  0.000   1.0 |
 |  0.14  0.57  0.15  1  3  1  0.000  0.000  1.000  1.000  0.000  0.000   1.0 |
 +----------------------------------------------------------------------------+
  
                                ------------
                                K-POINT GRID
                                ------------
  
             Grid size =  1 x  1 x  1      Total points =    1
  
 *----------------------------------------------------------------------------*
 | k-point      Fractional Coordinate        Cartesian Coordinate (Ang^-1)    |
 +----------------------------------------------------------------------------+
 |     1    0.00000   0.00000   0.00000   |    0.00000   0.00000   0.00000    |
 *----------------------------------------------------------------------------*
  
  
 *---------------------------------- MAIN ------------------------------------*
 |  Number of Wannier Functions               :               191             |
 |  Number of Objective Wannier Functions     :               191             |
 |  Number of input Bloch states              :               450             |
 |  Output verbosity (1=low, 5=high)          :                 3             |
 |  Timing Level (1=low, 5=high)              :                 1             |
 |  Optimisation (0=memory, 3=speed)          :                 3             |
 |  Length Unit                               :               Ang             |
 |  Post-processing setup (write *.nnkp)      :                 F             |
 |  Using Gamma-only branch of algorithms     :                 F             |
 |  CP code post-processing                   :                 F             |
 |  Wavefunction (UNK) file-type              :       unformatted             |
 |  Wavefunction spin channel                 :                up             |
 *----------------------------------------------------------------------------*
 *------------------------------- WANNIERISE ---------------------------------*
 |  Total number of iterations                :               500             |
 |  Number of CG steps before reset           :                 5             |
 |  Trial step length for line search         :             2.000             |
 |  Convergence tolerence                     :         0.100E-09             |
 |  Convergence window                        :                -1             |
 |  Iterations between writing output         :                50             |
 |  Iterations between backing up to disk     :               100             |
 |  Write r^2_nm to file                      :                 F             |
 |  Write xyz WF centres to file              :                 T             |
 |  Write on-site energies <0n|H|0n> to file  :                 F             |
 |  Use guiding centre to control phases      :                 T             |
 |  Use phases for initial projections        :                 F             |
 |  Iterations before starting guiding centres:                 0             |
 |  Iterations between using guiding centres  :                 1             |
 |  Perform selective localization            :                 F             |
 |  Use constrains in selective localization  :                 F             |
 |  Value of the Lagrange multiplier          :         0.100E+01             |
 *----------------------------------------------------------------------------*
 *------------------------------- DISENTANGLE --------------------------------*
 |  Using band disentanglement                :                 T             |
 |  Total number of iterations                :              4000             |
 |  Mixing ratio                              :             0.500             |
 |  Convergence tolerence                     :         1.000E-10             |
 |  Convergence window                        :                 3             |
 *----------------------------------------------------------------------------*
 *-------------------------------- PLOTTING ----------------------------------*
 |  Plotting Wannier functions                :                 F             |
 |   Size of supercell for plotting           :     2x    2x    2             |
 |   Plotting mode (molecule or crystal)      :           crystal             |
 |   Plotting format                          :          xcrysden             |
 |   Plot radius                              :             3.500             |
 |   Plot scale                               :             1.000             |
 *----------------------------------------------------------------------------*
 |  Plotting Fermi surface                    :                 F             |
 |   Number of plotting points (along b_1)    :                50             |
 |   Plotting format                          :          xcrysden             |
 *----------------------------------------------------------------------------*
 |  Plotting interpolated bandstructure       :                 T             |
 |   Number of K-path sections                :                 4             |
 |   Divisions along first K-path section     :               100             |
 |   Output format                            :           gnuplot             |
 |   Output mode                              :               s-k             |
 *----------------------------------------------------------------------------*
 |   K-space path sections:                                                   |
 |    From: Γ      0.000  0.000  0.000     To: X       0.500  0.000  0.000   |
 |    From: X       0.500  0.000  0.000     To: S       0.500  0.500  0.000   |
 |    From: S       0.500  0.500  0.000     To: Y       0.000  0.500  0.000   |
 |    From: Y       0.000  0.500  0.000     To: Γ      0.000  0.000  0.000   |
 *----------------------------------------------------------------------------*
 |  Plotting Hamiltonian in WF basis          :                 T             |
 *----------------------------------------------------------------------------*
 |  Writing data for Van der Waals post-proc  :                 F             |
 *----------------------------------------------------------------------------*
 *------------------------------- TRANSPORT ----------------------------------*
 |  Transport mode                            :              bulk             |
 |   Hamiltonian from external files          :                 F             |
 |   System extended in                       :              none             |
 |   Centre of the unit cell to which WF are translated (fract. coords):      |
 |                                       0.000000,    0.000000,    0.000000   |
 |  Fermi energy (eV)                         :             0.000             |
 *----------------------------------------------------------------------------*
 Time to read parameters        0.016 (sec)

 *---------------------------------- K-MESH ----------------------------------*
 +----------------------------------------------------------------------------+
 |                    Distance to Nearest-Neighbour Shells                    |
 |                    ------------------------------------                    |
 |          Shell             Distance (Ang^-1)          Multiplicity         |
 |          -----             -----------------          ------------         |
 |             1                   0.265883                      2            |
 |             2                   0.526343                      6            |
 |             3                   0.531765                      2            |
 |             4                   0.589686                     12            |
 |             5                   0.748205                     12            |
 |             6                   0.797648                      2            |
 |             7                   0.911652                      6            |
 |             8                   0.949633                     12            |
 |             9                   0.955656                     12            |
 |            10                   1.052685                      6            |
 |            11                   1.055407                     12            |
 |            12                   1.063530                      2            |
 |            13                   1.085744                     12            |
 |            14                   1.179373                     12            |
 |            15                   1.186648                     12            |
 |            16                   1.211343                     12            |
 |            17                   1.320753                     12            |
 |            18                   1.329413                      2            |
 |            19                   1.392572                     12            |
 |            20                   1.400788                     12            |
 |            21                   1.417727                     24            |
 |            22                   1.429816                     12            |
 |            23                   1.490648                     24            |
 |            24                   1.496410                     12            |
 |            25                   1.579028                      6            |
 |            26                   1.601257                     12            |
 |            27                   1.604836                     24            |
 |            28                   1.611970                     12            |
 |            29                   1.666164                     12            |
 |            30                   1.695726                     12            |
 |            31                   1.752242                     24            |
 |            32                   1.769059                     12            |
 |            33                   1.823305                      6            |
 |            34                   1.842589                     12            |
 |            35                   1.897756                     12            |
 |            36                   1.899267                     12            |
 +----------------------------------------------------------------------------+
 | The b-vectors are chosen automatically                                     |
 | Shell:  1 Multiplicity:  2                                                 |
 | b-vector 1 :        0.000000    0.000000    0.265883      (Ang^-1)         |
 | b-vector 2 :        0.000000    0.000000   -0.265883      (Ang^-1)         |
 | Shell:  1 w_b    7.0727819      (Ang^2)                                    |
 | B1 condition is not satisfied: Adding another shell                        |
 | Shell:  2 Multiplicity:  6                                                 |
 | b-vector 1 :        0.455826    0.263171    0.000000      (Ang^-1)         |
 | b-vector 2 :        0.455826   -0.263171    0.000000      (Ang^-1)         |
 | b-vector 3 :        0.000000    0.526343    0.000000      (Ang^-1)         |
 | b-vector 4 :        0.000000   -0.526343    0.000000      (Ang^-1)         |
 | b-vector 5 :       -0.455826    0.263171    0.000000      (Ang^-1)         |
 | b-vector 6 :       -0.455826   -0.263171    0.000000      (Ang^-1)         |
 | Shell:  1 w_b    7.0727819      (Ang^2)                                    |
 | Shell:  2 w_b    1.2032104      (Ang^2)                                    |
 | The following shells are used:   1,  2                                     |
 +----------------------------------------------------------------------------+
 |                        Shell   # Nearest-Neighbours                        |
 |                        -----   --------------------                        |
 |                          1               2                                 |
 |                          2               6                                 |
 +----------------------------------------------------------------------------+
 | Completeness relation is fully satisfied [Eq. (B1), PRB 56, 12847 (1997)]  |
 +----------------------------------------------------------------------------+
 |                  b_k Vectors (Ang^-1) and Weights (Ang^2)                  |
 |                  ----------------------------------------                  |
 |            No.         b_k(x)      b_k(y)      b_k(z)        w_b           |
 |            ---        --------------------------------     --------        |
 |             1         0.000000    0.000000    0.265883     7.072782        |
 |             2         0.000000    0.000000   -0.265883     7.072782        |
 |             3         0.455826    0.263171    0.000000     1.203210        |
 |             4         0.455826   -0.263171    0.000000     1.203210        |
 |             5         0.000000    0.526343    0.000000     1.203210        |
 |             6         0.000000   -0.526343    0.000000     1.203210        |
 |             7        -0.455826    0.263171    0.000000     1.203210        |
 |             8        -0.455826   -0.263171    0.000000     1.203210        |
 +----------------------------------------------------------------------------+
 |                           b_k Directions (Ang^-1)                          |
 |                           -----------------------                          |
 |            No.           x           y           z                         |
 |            ---        --------------------------------                     |
 |             1         0.000000    0.000000    0.265883                     |
 |             2         0.455826    0.263171    0.000000                     |
 |             3         0.455826   -0.263171    0.000000                     |
 |             4         0.000000    0.526343    0.000000                     |
 +----------------------------------------------------------------------------+
  
 Time to get kmesh              0.012 (sec)
 *============================================================================*
 |                              MEMORY ESTIMATE                               |
 |         Maximum RAM allocated during each phase of the calculation         |
 *============================================================================*
 |                        Disentanglement           42.01 Mb                  |
 |                            Wannierise:           15.40 Mb                  |
 |                                                                            |
 |   N.B. by setting optimisation=0 memory usage will be reduced to:          |
 |                        Disentanglement           42.01 Mb                  |
 |                            Wannierise:           10.95 Mb                  |
 |   However, this will result in more i/o and slow down the calculation      |
 |                          plot_wannier:           15.40 Mb                  |
 *----------------------------------------------------------------------------*
  
 Starting a new Wannier90 calculation ...


 Reading overlaps from 3cr.up.mmn    :  Created on 20Jul2023 at 20:12:19

 Reading projections from 3cr.up.amn :  Created on 20Jul2023 at 20:11: 6

 Time to read overlaps          3.939 (sec)

 *------------------------------- DISENTANGLE --------------------------------*
 +----------------------------------------------------------------------------+
 |                              Energy  Windows                               |
 |                              ---------------                               |
 |                   Outer:  -30.00000  to   30.00000  (eV)                   |
 |                   Inner:   -6.00000  to    2.50000  (eV)                   |
 +----------------------------------------------------------------------------+
 |                        K-points with Frozen States                         |
 |                        ---------------------------                         |
 |     1                                                                      |
 +----------------------------------------------------------------------------+
   Number of target bands to extract:  191
 +----------------------------------------------------------------------------+
 |                                  Windows                                   |
 |                                  -------                                   |
 |               K-point      Ndimwin     Ndimfroz    Nfirstwin               |
 |               ----------------------------------------------               |
 |                   1          374          161          77                  |
 +----------------------------------------------------------------------------+

                   Unitarised projection of Wannier functions                  
                   ------------------------------------------                  
   A_mn = <psi_m|g_n> --> S = A.A^+ --> U = S^-1/2.A
   In dis_project... done
   Using an inner window (linner = T)
   In dis_proj_froz...
 K-point   1 ndimwin: 374 we want the 30 leading eigenvector(s) of QPQ
  lambda(  1)= -0.000000000000
  lambda(  2)= -0.000000000000
  lambda(  3)= -0.000000000000
  lambda(  4)= -0.000000000000
  lambda(  5)= -0.000000000000
  lambda(  6)= -0.000000000000
  lambda(  7)= -0.000000000000
  lambda(  8)= -0.000000000000
  lambda(  9)= -0.000000000000
  lambda( 10)= -0.000000000000
  lambda( 11)= -0.000000000000
  lambda( 12)= -0.000000000000
  lambda( 13)= -0.000000000000
  lambda( 14)= -0.000000000000
  lambda( 15)= -0.000000000000
  lambda( 16)= -0.000000000000
  lambda( 17)= -0.000000000000
  lambda( 18)= -0.000000000000
  lambda( 19)= -0.000000000000
  lambda( 20)= -0.000000000000
  lambda( 21)= -0.000000000000
  lambda( 22)= -0.000000000000
  lambda( 23)= -0.000000000000
  lambda( 24)= -0.000000000000
  lambda( 25)= -0.000000000000
  lambda( 26)= -0.000000000000
  lambda( 27)= -0.000000000000
  lambda( 28)= -0.000000000000
  lambda( 29)= -0.000000000000
  lambda( 30)= -0.000000000000
  lambda( 31)= -0.000000000000
  lambda( 32)= -0.000000000000
  lambda( 33)= -0.000000000000
  lambda( 34)= -0.000000000000
  lambda( 35)= -0.000000000000
  lambda( 36)= -0.000000000000
  lambda( 37)= -0.000000000000
  lambda( 38)= -0.000000000000
  lambda( 39)= -0.000000000000
  lambda( 40)= -0.000000000000
  lambda( 41)= -0.000000000000
  lambda( 42)= -0.000000000000
  lambda( 43)= -0.000000000000
  lambda( 44)= -0.000000000000
  lambda( 45)= -0.000000000000
  lambda( 46)= -0.000000000000
  lambda( 47)= -0.000000000000
  lambda( 48)= -0.000000000000
  lambda( 49)= -0.000000000000
  lambda( 50)= -0.000000000000
  lambda( 51)= -0.000000000000
  lambda( 52)= -0.000000000000
  lambda( 53)= -0.000000000000
  lambda( 54)= -0.000000000000
  lambda( 55)= -0.000000000000
  lambda( 56)= -0.000000000000
  lambda( 57)= -0.000000000000
  lambda( 58)= -0.000000000000
  lambda( 59)= -0.000000000000
  lambda( 60)= -0.000000000000
  lambda( 61)= -0.000000000000
  lambda( 62)= -0.000000000000
  lambda( 63)= -0.000000000000
  lambda( 64)= -0.000000000000
  lambda( 65)= -0.000000000000
  lambda( 66)= -0.000000000000
  lambda( 67)= -0.000000000000
  lambda( 68)= -0.000000000000
  lambda( 69)= -0.000000000000
  lambda( 70)= -0.000000000000
  lambda( 71)= -0.000000000000
  lambda( 72)= -0.000000000000
  lambda( 73)= -0.000000000000
  lambda( 74)= -0.000000000000
  lambda( 75)= -0.000000000000
  lambda( 76)= -0.000000000000
  lambda( 77)= -0.000000000000
  lambda( 78)= -0.000000000000
  lambda( 79)= -0.000000000000
  lambda( 80)= -0.000000000000
  lambda( 81)= -0.000000000000
  lambda( 82)= -0.000000000000
  lambda( 83)= -0.000000000000
  lambda( 84)= -0.000000000000
  lambda( 85)= -0.000000000000
  lambda( 86)= -0.000000000000
  lambda( 87)= -0.000000000000
  lambda( 88)= -0.000000000000
  lambda( 89)= -0.000000000000
  lambda( 90)= -0.000000000000
  lambda( 91)= -0.000000000000
  lambda( 92)= -0.000000000000
  lambda( 93)= -0.000000000000
  lambda( 94)=  0.000000000000
  lambda( 95)=  0.000000000000
  lambda( 96)=  0.000000000000
  lambda( 97)=  0.000000000000
  lambda( 98)=  0.000000000000
  lambda( 99)=  0.000000000000
  lambda(100)=  0.000000000000
  lambda(101)=  0.000000000000
  lambda(102)=  0.000000000000
  lambda(103)=  0.000000000000
  lambda(104)=  0.000000000000
  lambda(105)=  0.000000000000
  lambda(106)=  0.000000000000
  lambda(107)=  0.000000000000
  lambda(108)=  0.000000000000
  lambda(109)=  0.000000000000
  lambda(110)=  0.000000000000
  lambda(111)=  0.000000000000
  lambda(112)=  0.000000000000
  lambda(113)=  0.000000000000
  lambda(114)=  0.000000000000
  lambda(115)=  0.000000000000
  lambda(116)=  0.000000000000
  lambda(117)=  0.000000000000
  lambda(118)=  0.000000000000
  lambda(119)=  0.000000000000
  lambda(120)=  0.000000000000
  lambda(121)=  0.000000000000
  lambda(122)=  0.000000000000
  lambda(123)=  0.000000000000
  lambda(124)=  0.000000000000
  lambda(125)=  0.000000000000
  lambda(126)=  0.000000000000
  lambda(127)=  0.000000000000
  lambda(128)=  0.000000000000
  lambda(129)=  0.000000000000
  lambda(130)=  0.000000000000
  lambda(131)=  0.000000000000
  lambda(132)=  0.000000000000
  lambda(133)=  0.000000000000
  lambda(134)=  0.000000000000
  lambda(135)=  0.000000000000
  lambda(136)=  0.000000000000
  lambda(137)=  0.000000000000
  lambda(138)=  0.000000000000
  lambda(139)=  0.000000000000
  lambda(140)=  0.000000000000
  lambda(141)=  0.000000000000
  lambda(142)=  0.000000000000
  lambda(143)=  0.000000000000
  lambda(144)=  0.000000000000
  lambda(145)=  0.000000000000
  lambda(146)=  0.000000000000
  lambda(147)=  0.000000000000
  lambda(148)=  0.000000000000
  lambda(149)=  0.000000000000
  lambda(150)=  0.000000000000
  lambda(151)=  0.000000000000
  lambda(152)=  0.000000000000
  lambda(153)=  0.000000000000
  lambda(154)=  0.000000000000
  lambda(155)=  0.000000000000
  lambda(156)=  0.000000000000
  lambda(157)=  0.000000000000
  lambda(158)=  0.000000000000
  lambda(159)=  0.000000000000
  lambda(160)=  0.000000000000
  lambda(161)=  0.000000000000
  lambda(162)=  0.000000000000
  lambda(163)=  0.000000000000
  lambda(164)=  0.000000000000
  lambda(165)=  0.000000000000
  lambda(166)=  0.000000000000
  lambda(167)=  0.000000000000
  lambda(168)=  0.000000000000
  lambda(169)=  0.000000000000
  lambda(170)=  0.000000000000
  lambda(171)=  0.000000000000
  lambda(172)=  0.000000000000
  lambda(173)=  0.000000000000
  lambda(174)=  0.000000000000
  lambda(175)=  0.000000000000
  lambda(176)=  0.000000000000
  lambda(177)=  0.000000000000
  lambda(178)=  0.000000000000
  lambda(179)=  0.000000000000
  lambda(180)=  0.000000000000
  lambda(181)=  0.000000000000
  lambda(182)=  0.000000000000
  lambda(183)=  0.000000000000
  lambda(184)=  0.000000004700
  lambda(185)=  0.000000023753
  lambda(186)=  0.000000034609
  lambda(187)=  0.000000054623
  lambda(188)=  0.000000067187
  lambda(189)=  0.000000101711
  lambda(190)=  0.000000116291
  lambda(191)=  0.000000159295
  lambda(192)=  0.000000297642
  lambda(193)=  0.000000430650
  lambda(194)=  0.000000527370
  lambda(195)=  0.000000832390
  lambda(196)=  0.000001044833
  lambda(197)=  0.000001265031
  lambda(198)=  0.000001692121
  lambda(199)=  0.000002057453
  lambda(200)=  0.000002240025
  lambda(201)=  0.000003895788
  lambda(202)=  0.000004659850
  lambda(203)=  0.000005672227
  lambda(204)=  0.000006560847
  lambda(205)=  0.000007160103
  lambda(206)=  0.000007646913
  lambda(207)=  0.000013148103
  lambda(208)=  0.000013614063
  lambda(209)=  0.000014986101
  lambda(210)=  0.000018575392
  lambda(211)=  0.000021912492
  lambda(212)=  0.000030927160
  lambda(213)=  0.000034434604
  lambda(214)=  0.000047032262
  lambda(215)=  0.000050144555
  lambda(216)=  0.000065890406
  lambda(217)=  0.000086088927
  lambda(218)=  0.000109698096
  lambda(219)=  0.000125213341
  lambda(220)=  0.000151634310
  lambda(221)=  0.000186427447
  lambda(222)=  0.000204658171
  lambda(223)=  0.000219961172
  lambda(224)=  0.000231892931
  lambda(225)=  0.000288277318
  lambda(226)=  0.000334996164
  lambda(227)=  0.000404367908
  lambda(228)=  0.000487818401
  lambda(229)=  0.000573398138
  lambda(230)=  0.000640732276
  lambda(231)=  0.000765884072
  lambda(232)=  0.000819722772
  lambda(233)=  0.000965339248
  lambda(234)=  0.001237245139
  lambda(235)=  0.001239306933
  lambda(236)=  0.001514105618
  lambda(237)=  0.001727206418
  lambda(238)=  0.001896400185
  lambda(239)=  0.001935892502
  lambda(240)=  0.002385770129
  lambda(241)=  0.002694580468
  lambda(242)=  0.002791167890
  lambda(243)=  0.003351242760
  lambda(244)=  0.003792475508
  lambda(245)=  0.004575403425
  lambda(246)=  0.004710536575
  lambda(247)=  0.004955549678
  lambda(248)=  0.005437621230
  lambda(249)=  0.006024594958
  lambda(250)=  0.006601224195
  lambda(251)=  0.007181020418
  lambda(252)=  0.007654443905
  lambda(253)=  0.007927289386
  lambda(254)=  0.008658323330
  lambda(255)=  0.008952870047
  lambda(256)=  0.009894232731
  lambda(257)=  0.010206225001
  lambda(258)=  0.010906518872
  lambda(259)=  0.012145927876
  lambda(260)=  0.012636524108
  lambda(261)=  0.013581182070
  lambda(262)=  0.014299192863
  lambda(263)=  0.015686198103
  lambda(264)=  0.016586068416
  lambda(265)=  0.018029210717
  lambda(266)=  0.019081082350
  lambda(267)=  0.019776815227
  lambda(268)=  0.020362965817
  lambda(269)=  0.024637267896
  lambda(270)=  0.025590229943
  lambda(271)=  0.026721232460
  lambda(272)=  0.028111960023
  lambda(273)=  0.029382362854
  lambda(274)=  0.030643588041
  lambda(275)=  0.030707037324
  lambda(276)=  0.031419775553
  lambda(277)=  0.032426929111
  lambda(278)=  0.033396268182
  lambda(279)=  0.034198150574
  lambda(280)=  0.035965039352
  lambda(281)=  0.036873286742
  lambda(282)=  0.038264851864
  lambda(283)=  0.040683467348
  lambda(284)=  0.041319974779
  lambda(285)=  0.042967397428
  lambda(286)=  0.045917315518
  lambda(287)=  0.048013983122
  lambda(288)=  0.050634931450
  lambda(289)=  0.053680488634
  lambda(290)=  0.057769526604
  lambda(291)=  0.060019342950
  lambda(292)=  0.062385832562
  lambda(293)=  0.062892804034
  lambda(294)=  0.065741609832
  lambda(295)=  0.068135240906
  lambda(296)=  0.069982162155
  lambda(297)=  0.070886491698
  lambda(298)=  0.071840352733
  lambda(299)=  0.072766557778
  lambda(300)=  0.075701707353
  lambda(301)=  0.077538263306
  lambda(302)=  0.081821445663
  lambda(303)=  0.084702073989
  lambda(304)=  0.087191323125
  lambda(305)=  0.094577453370
  lambda(306)=  0.099294146845
  lambda(307)=  0.103043925861
  lambda(308)=  0.105384798161
  lambda(309)=  0.109581846774
  lambda(310)=  0.112100406833
  lambda(311)=  0.114338430903
  lambda(312)=  0.119060756385
  lambda(313)=  0.123268439620
  lambda(314)=  0.125091624158
  lambda(315)=  0.129908714244
  lambda(316)=  0.135603032007
  lambda(317)=  0.138513343438
  lambda(318)=  0.139323535343
  lambda(319)=  0.141812160202
  lambda(320)=  0.146068641723
  lambda(321)=  0.148304919222
  lambda(322)=  0.154109446897
  lambda(323)=  0.157225961312
  lambda(324)=  0.159609955828
  lambda(325)=  0.160985953922
  lambda(326)=  0.164353501419
  lambda(327)=  0.166738967842
  lambda(328)=  0.174041768521
  lambda(329)=  0.174949454314
  lambda(330)=  0.175931544889
  lambda(331)=  0.176447506898
  lambda(332)=  0.179477093137
  lambda(333)=  0.181760052807
  lambda(334)=  0.186673785778
  lambda(335)=  0.194691503068
  lambda(336)=  0.195450233134
  lambda(337)=  0.197565518897
  lambda(338)=  0.203093194347
  lambda(339)=  0.209602004548
  lambda(340)=  0.219701480489
  lambda(341)=  0.245572770186
  lambda(342)=  0.420175480801
  lambda(343)=  0.474932582635
  lambda(344)=  0.550640780590
  lambda(345)=  1.000000000000
  lambda(346)=  1.000000000000
  lambda(347)=  1.000000000000
  lambda(348)=  1.000000000000
  lambda(349)=  1.000000000000
  lambda(350)=  1.000000000000
  lambda(351)=  1.000000000000
  lambda(352)=  1.000000000000
  lambda(353)=  1.000000000000
  lambda(354)=  1.000000000000
  lambda(355)=  1.000000000000
  lambda(356)=  1.000000000000
  lambda(357)=  1.000000000000
  lambda(358)=  1.000000000000
  lambda(359)=  1.000000000000
  lambda(360)=  1.000000000000
  lambda(361)=  1.000000000000
  lambda(362)=  1.000000000000
  lambda(363)=  1.000000000000
  lambda(364)=  1.000000000000
  lambda(365)=  1.000000000000
  lambda(366)=  1.000000000000
  lambda(367)=  1.000000000000
  lambda(368)=  1.000000000000
  lambda(369)=  1.000000000000
  lambda(370)=  1.000000000000
  lambda(371)=  1.000000000000
  lambda(372)=  1.000000000000
  lambda(373)=  1.000000000000
  lambda(374)=  1.000000000000
 done

                   Extraction of optimally-connected subspace                  
                   ------------------------------------------                  
  Original eigenvalues inside outer window:

  K-point   1   -15.94456 -15.54881 -15.15370 -14.89068 -14.62057 -14.48341 -14.22453 -14.17318 -13.90020 -13.83377 -13.80812 -13.74522 -13.63678 -13.61188 -13.45373 -13.35049 -13.33470 -13.31967 -13.22438 -13.19731
-13.19362 -13.17322 -13.13882 -13.09931 -13.08903 -13.06888 -13.06253 -13.03494 -13.00174 -12.98736 -12.97753 -12.93912  -7.88742  -7.55903  -7.29039  -7.07070  -6.99963  -6.89161  -6.76744  -6.61072
 -6.41577  -6.13390  -6.07356  -6.05502  -5.99564  -5.92582  -5.82504  -5.77303  -5.65100  -5.62078  -5.51511  -5.48361  -5.36962  -5.31890  -5.29402  -5.24704  -5.21797  -5.20283  -5.17314  -5.09513
 -5.06722  -5.04705  -5.01114  -4.96189  -4.85139  -4.83723  -4.75621  -4.69423  -4.68232  -4.64488  -4.58216  -4.53760  -4.47478  -4.40682  -4.36173  -4.23188  -4.21038  -4.20028  -4.16152  -4.14175
 -4.10997  -4.07139  -4.02909  -3.94753  -3.88931  -3.83016  -3.81825  -3.79888  -3.75962  -3.70055  -3.66770  -3.64912  -3.60177  -3.56045  -3.55158  -3.47121  -3.47066  -3.43461  -3.41325  -3.39548
 -3.38103  -3.35369  -3.31726  -3.23888  -3.20042  -3.12019  -3.08846  -2.99390  -2.78441  -2.76073  -2.68048  -2.66824  -2.61465  -2.60448  -2.50832  -2.49732  -2.48310  -2.46265  -2.44186  -2.39863
 -2.37042  -2.30329  -2.29577  -2.27523  -2.19703  -2.18846  -2.17293  -2.17066  -2.11777  -2.10662  -2.08799  -2.04417  -1.90645  -1.88367  -1.81135  -1.78694  -1.69473  -1.61068  -1.59834  -1.46783
 -1.44645  -1.41080  -1.19576  -1.14899  -1.09333  -1.09147  -1.02286  -0.98123  -0.96935  -0.86420  -0.81311  -0.79694  -0.76686  -0.72956  -0.68314  -0.64386  -0.59923  -0.54184  -0.41555   0.79107
  0.89782   1.02529   1.24163   1.31982   1.35380   1.38945   1.44969   1.46888   1.47696   1.50244   1.51154   1.51936   1.57014   1.58458   1.60147   1.63601   1.64339   1.67354   1.68232   1.70113
  1.72704   1.74552   1.82976   1.86228   1.88776   1.92161   1.97129   1.98438   2.00773   2.02417   2.04589   2.05142   2.07319   2.08941   2.09749   2.13735   2.15195   2.18227   2.19383   2.21088
  2.22582   2.24077   2.27095   2.30315   2.33116   2.61220   2.62395   2.73412   2.80082   2.84161   2.86662   2.87965   2.89490   2.96572   2.98276   3.22828   3.25318   3.31527   3.33275   3.37547
  3.43140   3.44631   3.47450   3.48681   3.54753   3.67529   3.76817   3.79818   3.97984   4.23298   4.35183   4.41752   4.45198   4.49967   4.51469   4.52733   4.78250   4.80924   4.86899   4.87109
  4.88964   4.89589   4.90729   4.91062   4.98019   5.04357   5.06460   5.10073   5.11323   5.18663   5.20588   5.41404   5.46420   5.55976   5.59474   5.74296   5.77748   5.78554   5.81783   5.84228
  5.86492   5.88212   5.90722   5.91610   5.96450   5.98279   6.00038   6.08988   6.14234   6.17363   6.19122   6.21986   6.23728   6.24969   6.27163   6.28737   6.33061   6.33760   6.36045   6.39939
  6.41757   6.46602   6.47976   6.53219   6.57176   6.62689   6.63595   6.66757   6.71203   6.74984   6.77998   6.85110   6.88238   6.90283   6.91985   6.93923   6.94448   6.97997   6.98868   7.01513
  7.02679   7.03400   7.05809   7.17891   7.20004   7.22267   7.24013   7.27752   7.29922   7.31154   7.32917   7.36782   7.40627   7.41932   7.44838   7.47773   7.53265   7.56897   7.58212   7.58499
  7.60125   7.63470   7.64573   7.64925   7.66234   7.66534   7.67600   7.68015   7.69385   7.71594   7.74702   7.79610   7.82581   7.83882   7.90633   7.93790   7.93998   7.95337   7.95763   7.97483
  8.04931   8.05467   8.06199   8.10264   8.10882   8.13640   8.22326   8.28610   8.32798   8.36900   8.37620   8.39584   8.40770   8.41064   8.42895   8.43936   8.46742   8.49626   8.51117   8.53063
  8.55429   8.57870   8.59445   8.60513   8.76526   8.79312   8.86341   8.87370   8.90463   8.91805   8.93004   8.95421   8.97858   9.00039
 +---------------------------------------------------------------------+<-- DIS
 |  Iter     Omega_I(i-1)      Omega_I(i)      Delta (frac.)    Time   |<-- DIS
 +---------------------------------------------------------------------+<-- DIS
       1     322.08479157     319.73379777       7.353E-03      0.00    <-- DIS
       2     320.14425301     318.94860384       3.749E-03      0.20    <-- DIS
       3     319.29246233     318.37864032       2.870E-03      0.40    <-- DIS
       4     318.63529025     317.93752291       2.195E-03      0.59    <-- DIS
       5     318.12414992     317.58592244       1.695E-03      0.79    <-- DIS
       6     317.72101981     317.29967763       1.328E-03      0.99    <-- DIS
       7     317.39790466     317.06276887       1.057E-03      1.18    <-- DIS
       8     317.13473802     316.86411522       8.541E-04      1.38    <-- DIS
       9     316.91722848     316.69578464       6.992E-04      1.58    <-- DIS
      10     316.73513909     316.55192755       5.788E-04      1.78    <-- DIS
      11     316.58103954     316.42811697       4.833E-04      1.97    <-- DIS
      12     316.44944102     316.32092692       4.063E-04      2.17    <-- DIS
      13     316.33620851     316.22765500       3.433E-04      2.37    <-- DIS
      14     316.23816412     316.14613481       2.911E-04      2.56    <-- DIS
      15     316.15281870     316.07460568       2.475E-04      2.76    <-- DIS
      16     316.07818858     316.01162006       2.107E-04      2.96    <-- DIS
      17     316.01266857     315.95597617       1.794E-04      3.15    <-- DIS
      18     315.95494267     315.90666796       1.528E-04      3.35    <-- DIS
      19     315.90391988     315.86284733       1.300E-04      3.54    <-- DIS
      20     315.85868725     315.82379500       1.105E-04      3.75    <-- DIS
      21     315.81847489     315.78889782       9.366E-05      3.94    <-- DIS
      22     315.78262922     315.75763075       7.917E-05      4.14    <-- DIS
      23     315.75059238     315.72954245       6.667E-05      4.34    <-- DIS
      24     315.72188599     315.70424364       5.588E-05      4.53    <-- DIS
      25     315.69609819     315.68139753       4.657E-05      4.73    <-- DIS
      26     315.67287315     315.66071196       3.853E-05      4.92    <-- DIS
      27     315.65190257     315.64193288       3.159E-05      5.12    <-- DIS
      28     315.63291859     315.62483887       2.560E-05      5.32    <-- DIS
      29     315.61568796     315.60923662       2.044E-05      5.51    <-- DIS
      30     315.60000716     315.59495697       1.600E-05      5.71    <-- DIS
      31     315.58569823     315.58185169       1.219E-05      5.91    <-- DIS
      32     315.57260533     315.56979069       8.919E-06      6.11    <-- DIS
      33     315.56059174     315.55865956       6.123E-06      6.31    <-- DIS
      34     315.54953737     315.54835763       3.739E-06      6.50    <-- DIS
      35     315.53933654     315.53879609       1.713E-06      6.70    <-- DIS
      36     315.52989617     315.52989659      -1.329E-09      6.89    <-- DIS
      37     315.52113416     315.52158985      -1.444E-06      7.09    <-- DIS
      38     315.51297797     315.51381455      -2.651E-06      7.28    <-- DIS
      39     315.50536352     315.50651637      -3.654E-06      7.48    <-- DIS
      40     315.49823402     315.49964711      -4.479E-06      7.67    <-- DIS
      41     315.49153919     315.49316396      -5.150E-06      7.87    <-- DIS
      42     315.48523442     315.48702883      -5.688E-06      8.06    <-- DIS
      43     315.47928007     315.48120786      -6.111E-06      8.26    <-- DIS
      44     315.47364091     315.47567081      -6.434E-06      8.45    <-- DIS
      45     315.46828561     315.47039074      -6.673E-06      8.65    <-- DIS
      46     315.46318623     315.46534357      -6.839E-06      8.84    <-- DIS
      47     315.45831787     315.46050777      -6.942E-06      9.04    <-- DIS
      48     315.45365831     315.45586407      -6.992E-06      9.23    <-- DIS
      49     315.44918769     315.45139519      -6.998E-06      9.43    <-- DIS
      50     315.44488826     315.44708563      -6.966E-06      9.63    <-- DIS
      51     315.44074413     315.44292148      -6.903E-06      9.82    <-- DIS
      52     315.43674104     315.43889022      -6.813E-06     10.02    <-- DIS
      53     315.43286625     315.43498060      -6.703E-06     10.21    <-- DIS
      54     315.42910827     315.43118247      -6.576E-06     10.41    <-- DIS
      55     315.42545684     315.42748668      -6.435E-06     10.60    <-- DIS
      56     315.42190267     315.42388498      -6.285E-06     10.80    <-- DIS
      57     315.41843746     315.42036991      -6.127E-06     10.99    <-- DIS
      58     315.41505370     315.41693472      -5.964E-06     11.19    <-- DIS
      59     315.41174462     315.41357330      -5.798E-06     11.38    <-- DIS
      60     315.40850413     315.41028012      -5.631E-06     11.58    <-- DIS
      61     315.40532673     315.40705016      -5.464E-06     11.77    <-- DIS
      62     315.40220745     315.40387887      -5.299E-06     11.97    <-- DIS
      63     315.39914179     315.40076210      -5.137E-06     12.16    <-- DIS
      64     315.39612568     315.39769610      -4.979E-06     12.36    <-- DIS
      65     315.39315545     315.39467745      -4.826E-06     12.55    <-- DIS
      66     315.39022775     315.39170301      -4.678E-06     12.75    <-- DIS
      67     315.38733957     315.38876995      -4.535E-06     12.94    <-- DIS
      68     315.38448817     315.38587569      -4.399E-06     13.14    <-- DIS
      69     315.38167105     315.38301784      -4.270E-06     13.34    <-- DIS
      70     315.37888597     315.38019426      -4.148E-06     13.53    <-- DIS
      71     315.37613086     315.37740296      -4.034E-06     13.73    <-- DIS
      72     315.37340386     315.37464213      -3.926E-06     13.92    <-- DIS
      73     315.37070327     315.37191011      -3.827E-06     14.12    <-- DIS
      74     315.36802755     315.36920540      -3.735E-06     14.31    <-- DIS
      75     315.36537528     315.36652658      -3.651E-06     14.51    <-- DIS
      76     315.36274519     315.36387240      -3.574E-06     14.70    <-- DIS
      77     315.36013611     315.36124166      -3.506E-06     14.89    <-- DIS
      78     315.35754696     315.35863329      -3.445E-06     15.09    <-- DIS
      79     315.35497677     315.35604629      -3.391E-06     15.28    <-- DIS
      80     315.35242465     315.35347974      -3.346E-06     15.48    <-- DIS
      81     315.34988978     315.35093279      -3.307E-06     15.67    <-- DIS
      82     315.34737142     315.34840466      -3.277E-06     15.86    <-- DIS
      83     315.34486886     315.34589462      -3.253E-06     16.06    <-- DIS
      84     315.34238150     315.34340200      -3.236E-06     16.25    <-- DIS
      85     315.33990874     315.34092616      -3.226E-06     16.45    <-- DIS
      86     315.33745004     315.33846653      -3.223E-06     16.64    <-- DIS
      87     315.33500492     315.33602256      -3.227E-06     16.84    <-- DIS
      88     315.33257292     315.33359374      -3.237E-06     17.03    <-- DIS
      89     315.33015361     315.33117959      -3.254E-06     17.22    <-- DIS
      90     315.32774659     315.32877966      -3.276E-06     17.42    <-- DIS
      91     315.32535150     315.32639352      -3.305E-06     17.61    <-- DIS
      92     315.32296799     315.32402077      -3.339E-06     17.81    <-- DIS
      93     315.32059573     315.32166103      -3.378E-06     18.00    <-- DIS
      94     315.31823442     315.31931393      -3.424E-06     18.20    <-- DIS
      95     315.31588377     315.31697913      -3.474E-06     18.39    <-- DIS
      96     315.31354349     315.31465629      -3.529E-06     18.59    <-- DIS
      97     315.31121334     315.31234508      -3.589E-06     18.78    <-- DIS
      98     315.30889304     315.31004520      -3.654E-06     18.98    <-- DIS
      99     315.30658236     315.30775634      -3.723E-06     19.17    <-- DIS
     100     315.30428105     315.30547821      -3.797E-06     19.36    <-- DIS
     101     315.30198890     315.30321052      -3.874E-06     19.56    <-- DIS
     102     315.29970567     315.30095298      -3.956E-06     19.75    <-- DIS
     103     315.29743114     315.29870533      -4.041E-06     19.95    <-- DIS
     104     315.29516510     315.29646727      -4.130E-06     20.14    <-- DIS
     105     315.29290732     315.29423855      -4.222E-06     20.33    <-- DIS
     106     315.29065761     315.29201889      -4.318E-06     20.53    <-- DIS
     107     315.28841574     315.28980803      -4.416E-06     20.72    <-- DIS
     108     315.28618151     315.28760570      -4.517E-06     20.92    <-- DIS
     109     315.28395471     315.28541165      -4.621E-06     21.11    <-- DIS
     110     315.28173513     315.28322559      -4.727E-06     21.30    <-- DIS
     111     315.27952255     315.28104728      -4.836E-06     21.50    <-- DIS
     112     315.27731678     315.27887645      -4.947E-06     21.69    <-- DIS
     113     315.27511759     315.27671284      -5.060E-06     21.89    <-- DIS
     114     315.27292478     315.27455619      -5.175E-06     22.08    <-- DIS
     115     315.27073814     315.27240622      -5.291E-06     22.28    <-- DIS
     116     315.26855746     315.27026269      -5.409E-06     22.47    <-- DIS
     117     315.26638252     315.26812533      -5.528E-06     22.66    <-- DIS
     118     315.26421311     315.26599388      -5.648E-06     22.86    <-- DIS
     119     315.26204902     315.26386807      -5.770E-06     23.05    <-- DIS
     120     315.25989004     315.26174765      -5.892E-06     23.25    <-- DIS
     121     315.25773594     315.25963236      -6.015E-06     23.44    <-- DIS
     122     315.25558653     315.25752194      -6.139E-06     23.63    <-- DIS
     123     315.25344159     315.25541613      -6.263E-06     23.83    <-- DIS
     124     315.25130091     315.25331468      -6.388E-06     24.03    <-- DIS
     125     315.24916428     315.25121734      -6.512E-06     24.22    <-- DIS
     126     315.24703150     315.24912387      -6.637E-06     24.42    <-- DIS
     127     315.24490236     315.24703400      -6.762E-06     24.61    <-- DIS
     128     315.24277666     315.24494751      -6.886E-06     24.81    <-- DIS
     129     315.24065421     315.24286416      -7.010E-06     25.00    <-- DIS
     130     315.23853480     315.24078370      -7.134E-06     25.20    <-- DIS
     131     315.23641826     315.23870593      -7.257E-06     25.39    <-- DIS
     132     315.23430440     315.23663061      -7.379E-06     25.59    <-- DIS
     133     315.23219303     315.23455752      -7.501E-06     25.78    <-- DIS
     134     315.23008399     315.23248647      -7.621E-06     25.98    <-- DIS
     135     315.22797711     315.23041725      -7.741E-06     26.17    <-- DIS
     136     315.22587222     315.22834967      -7.859E-06     26.37    <-- DIS
     137     315.22376919     315.22628353      -7.976E-06     26.56    <-- DIS
     138     315.22166786     315.22421868      -8.092E-06     26.76    <-- DIS
     139     315.21956810     315.22215494      -8.206E-06     26.95    <-- DIS
     140     315.21746979     315.22009215      -8.319E-06     27.15    <-- DIS
     141     315.21537280     315.21803018      -8.430E-06     27.34    <-- DIS
     142     315.21327703     315.21596889      -8.540E-06     27.54    <-- DIS
     143     315.21118239     315.21390816      -8.647E-06     27.73    <-- DIS
     144     315.20908879     315.21184787      -8.753E-06     27.93    <-- DIS
     145     315.20699617     315.20978794      -8.857E-06     28.12    <-- DIS
     146     315.20490446     315.20772827      -8.959E-06     28.32    <-- DIS
     147     315.20281361     315.20566881      -9.058E-06     28.51    <-- DIS
     148     315.20072359     315.20360949      -9.156E-06     28.71    <-- DIS
     149     315.19863439     315.20155028      -9.251E-06     28.90    <-- DIS
     150     315.19654598     315.19949114      -9.344E-06     29.10    <-- DIS
     151     315.19445840     315.19743207      -9.434E-06     29.29    <-- DIS
     152     315.19237164     315.19537308      -9.522E-06     29.49    <-- DIS
     153     315.19028576     315.19331418      -9.608E-06     29.68    <-- DIS
     154     315.18820081     315.19125541      -9.691E-06     29.88    <-- DIS
     155     315.18611684     315.18919683      -9.772E-06     30.07    <-- DIS
     156     315.18403396     315.18713850      -9.850E-06     30.27    <-- DIS
     157     315.18195225     315.18508052      -9.925E-06     30.46    <-- DIS
     158     315.17987184     315.18302299      -9.998E-06     30.66    <-- DIS
     159     315.17779284     315.18096602      -1.007E-05     30.85    <-- DIS
     160     315.17571542     315.17890977      -1.014E-05     31.05    <-- DIS
     161     315.17363974     315.17685438      -1.020E-05     31.25    <-- DIS
     162     315.17156597     315.17480002      -1.026E-05     31.44    <-- DIS
     163     315.16949431     315.17274690      -1.032E-05     31.64    <-- DIS
     164     315.16742498     315.17069520      -1.038E-05     31.84    <-- DIS
     165     315.16535820     315.16864517      -1.043E-05     32.04    <-- DIS
     166     315.16329421     315.16659703      -1.048E-05     32.23    <-- DIS
     167     315.16123328     315.16455105      -1.053E-05     32.43    <-- DIS
     168     315.15917567     315.16250749      -1.057E-05     32.63    <-- DIS
     169     315.15712168     315.16046665      -1.061E-05     32.82    <-- DIS
     170     315.15507161     315.15842882      -1.065E-05     33.02    <-- DIS
     171     315.15302578     315.15639433      -1.069E-05     33.21    <-- DIS
     172     315.15098451     315.15436352      -1.072E-05     33.41    <-- DIS
     173     315.14894816     315.15233672      -1.075E-05     33.61    <-- DIS
     174     315.14691708     315.15031430      -1.078E-05     33.80    <-- DIS
     175     315.14489164     315.14829662      -1.080E-05     34.00    <-- DIS
     176     315.14287222     315.14628409      -1.083E-05     34.20    <-- DIS
     177     315.14085921     315.14427709      -1.085E-05     34.39    <-- DIS
     178     315.13885301     315.14227603      -1.086E-05     34.59    <-- DIS
     179     315.13685403     315.14028134      -1.088E-05     34.79    <-- DIS
     180     315.13486270     315.13829343      -1.089E-05     34.98    <-- DIS
     181     315.13287943     315.13631275      -1.089E-05     35.18    <-- DIS
     182     315.13090468     315.13433973      -1.090E-05     35.38    <-- DIS
     183     315.12893887     315.13237484      -1.090E-05     35.57    <-- DIS
     184     315.12698245     315.13041852      -1.090E-05     35.77    <-- DIS
     185     315.12503588     315.12847125      -1.090E-05     35.97    <-- DIS
     186     315.12309962     315.12653348      -1.090E-05     36.16    <-- DIS
     187     315.12117411     315.12460569      -1.089E-05     36.36    <-- DIS
     188     315.11925982     315.12268834      -1.088E-05     36.55    <-- DIS
     189     315.11735722     315.12078192      -1.087E-05     36.75    <-- DIS
     190     315.11546676     315.11888690      -1.085E-05     36.95    <-- DIS
     191     315.11358890     315.11700375      -1.084E-05     37.14    <-- DIS
     192     315.11172411     315.11513295      -1.082E-05     37.34    <-- DIS
     193     315.10987284     315.11327496      -1.080E-05     37.53    <-- DIS
     194     315.10803554     315.11143025      -1.077E-05     37.72    <-- DIS
     195     315.10621266     315.10959929      -1.075E-05     37.92    <-- DIS
     196     315.10440466     315.10778254      -1.072E-05     38.11    <-- DIS
     197     315.10261195     315.10598043      -1.069E-05     38.31    <-- DIS
     198     315.10083498     315.10419343      -1.066E-05     38.50    <-- DIS
     199     315.09907416     315.10242196      -1.062E-05     38.70    <-- DIS
     200     315.09732991     315.10066646      -1.059E-05     38.89    <-- DIS
     201     315.09560263     315.09892734      -1.055E-05     39.09    <-- DIS
     202     315.09389272     315.09720501      -1.051E-05     39.28    <-- DIS
     203     315.09220056     315.09549987      -1.047E-05     39.48    <-- DIS
     204     315.09052651     315.09381230      -1.043E-05     39.67    <-- DIS
     205     315.08887094     315.09214268      -1.038E-05     39.87    <-- DIS
     206     315.08723419     315.09049137      -1.034E-05     40.06    <-- DIS
     207     315.08561659     315.08885870      -1.029E-05     40.26    <-- DIS
     208     315.08401845     315.08724502      -1.024E-05     40.45    <-- DIS
     209     315.08244009     315.08565063      -1.019E-05     40.65    <-- DIS
     210     315.08088178     315.08407585      -1.014E-05     40.84    <-- DIS
     211     315.07934379     315.08252095      -1.008E-05     41.04    <-- DIS
     212     315.07782639     315.08098619      -1.003E-05     41.24    <-- DIS
     213     315.07632980     315.07947185      -9.972E-06     41.43    <-- DIS
     214     315.07485425     315.07797814      -9.915E-06     41.63    <-- DIS
     215     315.07339994     315.07650528      -9.856E-06     41.82    <-- DIS
     216     315.07196706     315.07505348      -9.796E-06     42.02    <-- DIS
     217     315.07055577     315.07362291      -9.735E-06     42.21    <-- DIS
     218     315.06916623     315.07221375      -9.672E-06     42.41    <-- DIS
     219     315.06779856     315.07082613      -9.609E-06     42.60    <-- DIS
     220     315.06645290     315.06946019      -9.545E-06     42.80    <-- DIS
     221     315.06512932     315.06811603      -9.480E-06     42.99    <-- DIS
     222     315.06382792     315.06679374      -9.413E-06     43.18    <-- DIS
     223     315.06254874     315.06549341      -9.346E-06     43.38    <-- DIS
     224     315.06129185     315.06421509      -9.278E-06     43.57    <-- DIS
     225     315.06005727     315.06295881      -9.209E-06     43.77    <-- DIS
     226     315.05884499     315.06172461      -9.140E-06     43.96    <-- DIS
     227     315.05765503     315.06051247      -9.069E-06     44.16    <-- DIS
     228     315.05648735     315.05932240      -8.998E-06     44.36    <-- DIS
     229     315.05534192     315.05815436      -8.927E-06     44.55    <-- DIS
     230     315.05421868     315.05700830      -8.854E-06     44.75    <-- DIS
     231     315.05311755     315.05588418      -8.781E-06     44.95    <-- DIS
     232     315.05203846     315.05478190      -8.708E-06     45.14    <-- DIS
     233     315.05098130     315.05370139      -8.634E-06     45.34    <-- DIS
     234     315.04994594     315.05264252      -8.559E-06     45.54    <-- DIS
     235     315.04893228     315.05160520      -8.484E-06     45.73    <-- DIS
     236     315.04794015     315.05058927      -8.409E-06     45.93    <-- DIS
     237     315.04696941     315.04959460      -8.333E-06     46.13    <-- DIS
     238     315.04601988     315.04862102      -8.256E-06     46.32    <-- DIS
     239     315.04509139     315.04766837      -8.180E-06     46.52    <-- DIS
     240     315.04418373     315.04673646      -8.103E-06     46.71    <-- DIS
     241     315.04329672     315.04582510      -8.025E-06     46.91    <-- DIS
     242     315.04243014     315.04493408      -7.948E-06     47.11    <-- DIS
     243     315.04158376     315.04406319      -7.870E-06     47.30    <-- DIS
     244     315.04075736     315.04321221      -7.792E-06     47.50    <-- DIS
     245     315.03995068     315.04238091      -7.714E-06     47.70    <-- DIS
     246     315.03916349     315.04156904      -7.636E-06     47.89    <-- DIS
     247     315.03839552     315.04077636      -7.557E-06     48.09    <-- DIS
     248     315.03764652     315.04000262      -7.479E-06     48.28    <-- DIS
     249     315.03691621     315.03924754      -7.400E-06     48.48    <-- DIS
     250     315.03620433     315.03851087      -7.321E-06     48.68    <-- DIS
     251     315.03551058     315.03779233      -7.243E-06     48.87    <-- DIS
     252     315.03483468     315.03709165      -7.164E-06     49.07    <-- DIS
     253     315.03417634     315.03640853      -7.085E-06     49.27    <-- DIS
     254     315.03353528     315.03574271      -7.007E-06     49.46    <-- DIS
     255     315.03291118     315.03509387      -6.928E-06     49.66    <-- DIS
     256     315.03230376     315.03446175      -6.850E-06     49.85    <-- DIS
     257     315.03171271     315.03384603      -6.772E-06     50.05    <-- DIS
     258     315.03113773     315.03324642      -6.694E-06     50.25    <-- DIS
     259     315.03057851     315.03266263      -6.616E-06     50.44    <-- DIS
     260     315.03003474     315.03209434      -6.538E-06     50.64    <-- DIS
     261     315.02950612     315.03154128      -6.460E-06     50.84    <-- DIS
     262     315.02899234     315.03100312      -6.383E-06     51.03    <-- DIS
[...]
  WF centre and spread  102  (  5.167627,  0.977676, -0.138853 )     2.01212224
  WF centre and spread  103  (  5.159215,  0.965300,  0.003150 )     1.80206997
  WF centre and spread  104  (  5.163542,  0.979006,  0.004477 )     1.80926599
  WF centre and spread  105  (  5.165477,  1.061869,  3.464250 )     2.02025018
  WF centre and spread  106  (  5.159029,  1.052005,  3.319996 )     1.80827989
  WF centre and spread  107  (  5.166234,  1.056570,  3.320238 )     1.82942199
  WF centre and spread  108  ( -5.167910,  0.979519, -0.142460 )     2.01103437
  WF centre and spread  109  ( -5.153786,  0.966224,  0.004637 )     1.81547521
  WF centre and spread  110  ( -5.164527,  0.974192,  0.001568 )     1.80440262
  WF centre and spread  111  ( -5.156594,  1.049473,  3.464675 )     2.03063430
  WF centre and spread  112  ( -5.155937,  1.048295,  3.318567 )     1.80482502
  WF centre and spread  113  ( -5.160008,  1.055057,  3.321376 )     1.84244232
  WF centre and spread  114  ( -1.731000,  1.003335, -0.086836 )     2.01473852
  WF centre and spread  115  ( -1.723261,  0.990016,  0.065397 )     1.84447762
  WF centre and spread  116  ( -1.729055,  1.003294,  0.056748 )     1.80314013
  WF centre and spread  117  ( -1.724703,  0.973469,  3.484360 )     2.04345758
  WF centre and spread  118  ( -1.720867,  0.976684,  3.340201 )     1.79911868
  WF centre and spread  119  ( -1.726949,  0.985933,  3.347224 )     1.84014062
  WF centre and spread  120  ( -3.424419,  3.989756, -0.140274 )     2.01197907
  WF centre and spread  121  ( -3.423974,  3.977831,  0.009938 )     1.81858473
  WF centre and spread  122  ( -3.422027,  3.993650,  0.003980 )     1.83292173
  WF centre and spread  123  ( -3.509323,  3.953998,  3.462011 )     2.03503442
  WF centre and spread  124  ( -3.497113,  3.935244,  3.318252 )     1.82532383
  WF centre and spread  125  ( -3.504068,  3.966559,  3.325025 )     1.81631717
  WF centre and spread  126  (  1.745303, -4.966227, -0.140962 )     1.99176643
  WF centre and spread  127  (  1.731171, -4.967914,  0.006763 )     1.81172783
  WF centre and spread  128  (  1.737679, -4.941516,  0.008232 )     1.81548245
  WF centre and spread  129  (  1.326968, -4.780475,  3.870079 )     2.66279113
  WF centre and spread  130  (  1.847948, -4.958881,  3.439285 )     1.79645460
  WF centre and spread  131  (  1.722323, -5.254429,  3.452359 )     1.71192137
  WF centre and spread  132  ( -0.006808, -1.997074, -0.071989 )     2.02295625
  WF centre and spread  133  ( -0.003312, -2.012178,  0.062361 )     1.82574502
  WF centre and spread  134  ( -0.003671, -1.982904,  0.066084 )     1.79957746
  WF centre and spread  135  (  0.004451, -2.391111,  3.713878 )     2.69596374
  WF centre and spread  136  ( -0.021992, -1.998653,  3.373927 )     1.79671106
  WF centre and spread  137  ( -0.051317, -1.830940,  3.525153 )     1.78423289
  WF centre and spread  138  ( -3.491733, -2.011848, -0.009060 )     2.04351597
  WF centre and spread  139  ( -3.490102, -2.033129,  0.121204 )     1.83025989
  WF centre and spread  140  ( -3.491135, -2.005502,  0.119692 )     1.80412860
  WF centre and spread  141  ( -3.384188, -2.339977,  3.683352 )     2.63844276
  WF centre and spread  142  ( -3.370179, -1.966404,  3.437836 )     1.78575497
  WF centre and spread  143  ( -3.388836, -1.813856,  3.579552 )     1.85116211
  WF centre and spread  144  (  0.013062,  9.893432,  0.072636 )     2.05926862
  WF centre and spread  145  (  0.007721,  9.890200,  0.189064 )     1.86634800
  WF centre and spread  146  (  0.003220,  9.920272,  0.180800 )     1.80640066
  WF centre and spread  147  (  0.015848, 10.261058,  3.633684 )     1.96763531
  WF centre and spread  148  ( -0.001446, 10.204553,  3.534158 )     1.78937644
  WF centre and spread  149  (  0.001252, 10.120260,  3.521082 )     1.99810024
  WF centre and spread  150  (  3.482123, -2.026402, -0.017272 )     2.03403148
  WF centre and spread  151  (  3.483549, -2.033396,  0.122906 )     1.84170642
  WF centre and spread  152  (  3.489199, -2.008167,  0.117527 )     1.81684861
  WF centre and spread  153  (  3.387904, -1.975893,  3.560899 )     2.02962559
  WF centre and spread  154  (  3.398712, -1.986594,  3.408701 )     1.84835747
  WF centre and spread  155  (  3.396881, -1.962418,  3.409028 )     1.82479185
  WF centre and spread  156  (  0.000505, -7.951664, -0.193684 )     2.03098789
  WF centre and spread  157  ( -0.001868, -7.965291, -0.058333 )     1.82045853
  WF centre and spread  158  ( -0.000686, -7.943525, -0.057317 )     1.85674010
  WF centre and spread  159  (  0.001666, -7.944654,  3.446786 )     2.04139267
  WF centre and spread  160  ( -0.006012, -7.959849,  3.311221 )     1.82705922
  WF centre and spread  161  ( -0.006065, -7.908572,  3.312396 )     1.84783754
  WF centre and spread  162  ( -1.744489, -4.975256, -0.121969 )     2.02934133
  WF centre and spread  163  ( -1.742030, -4.976010,  0.023705 )     1.85813172
  WF centre and spread  164  ( -1.744671, -4.934951,  0.021505 )     1.85946835
  WF centre and spread  165  ( -1.628530, -4.929737,  3.268119 )     2.14457562
  WF centre and spread  166  ( -2.192729, -4.690636,  3.913869 )     2.07920765
  WF centre and spread  167  ( -1.691277, -5.239214,  3.434757 )     1.72537852
  WF centre and spread  168  (  1.679640,  6.979834,  0.058546 )     2.01334630
  WF centre and spread  169  (  1.692051,  6.970514,  0.191303 )     1.81116927
  WF centre and spread  170  (  1.690900,  7.003709,  0.182535 )     1.81524013
  WF centre and spread  171  (  2.217128,  6.976389,  3.835154 )     2.35838409
  WF centre and spread  172  (  0.221567,  7.837907,  5.075837 )     2.47367440
  WF centre and spread  173  (  1.918050,  6.573316,  3.670715 )     1.70937668
  WF centre and spread  174  (  3.430770,  4.001152, -0.130031 )     2.04721083
  WF centre and spread  175  (  3.422245,  3.981925,  0.009298 )     1.82794376
  WF centre and spread  176  (  3.421240,  4.007262,  0.024162 )     1.94420803
  WF centre and spread  177  (  3.505149,  3.957419,  3.465777 )     2.04111550
  WF centre and spread  178  (  3.489486,  3.942103,  3.318676 )     1.84808596
  WF centre and spread  179  (  3.505150,  3.988264,  3.327051 )     1.85768004
  WF centre and spread  180  ( -0.001431,  4.037750, -0.029948 )     1.99918274
  WF centre and spread  181  (  0.003381,  4.023200,  0.119658 )     1.81075359
  WF centre and spread  182  (  0.001199,  4.050752,  0.116935 )     1.83009771
  WF centre and spread  183  (  0.001327,  3.929125,  3.551477 )     2.02471959
  WF centre and spread  184  (  0.008630,  3.912374,  3.401392 )     1.81542456
  WF centre and spread  185  (  0.004361,  3.979193,  3.406526 )     1.83453009
  WF centre and spread  186  ( -1.683185,  6.986677,  0.057821 )     2.03371243
  WF centre and spread  187  ( -1.689751,  6.973871,  0.178948 )     1.80657681
  WF centre and spread  188  ( -1.689324,  6.992128,  0.184481 )     1.84252214
  WF centre and spread  189  ( -2.020353,  6.809458,  3.643876 )     1.98574601
  WF centre and spread  190  ( -1.857859,  6.875979,  3.512099 )     2.04856919
  WF centre and spread  191  ( -1.948057,  6.825874,  3.530946 )     1.78655827
  Sum of centres and spreads ( -4.977092,-23.659455,366.742063 )   342.52829200
 
         Spreads (Ang^2)       Omega I      =   314.964459178
        ================       Omega D      =     0.008472889
                               Omega OD     =    27.555360145
    Final Spread (Ang^2)       Omega Total  =   342.528292212
 ------------------------------------------------------------------------------
 Final centres (translated to home cell for writing xyz file)
  WF centre    1  (  0.010952,  7.953749,  3.836810 )
  WF centre    2  ( -0.045531,  7.965711,  4.011272 )
  WF centre    3  (  0.002571,  7.985787,  3.988001 )
  WF centre    4  (  0.007709,  7.855368,  3.907886 )
  WF centre    5  (  0.049354,  8.011358,  3.891127 )
  WF centre    6  ( -3.512855, -3.978600,  4.047624 )
  WF centre    7  ( -3.465802, -4.034608,  3.932519 )
  WF centre    8  ( -3.524812, -3.945449,  3.980378 )
  WF centre    9  ( -3.806990, -4.174600,  3.837195 )
  WF centre   10  ( -3.447726, -3.958708,  3.886263 )
  WF centre   11  (  0.241390, -3.974330,  4.001902 )
  WF centre   12  (  0.151754, -4.039026,  4.013106 )
  WF centre   13  (  0.287666, -3.992044,  3.934220 )
  WF centre   14  (  0.148032, -4.023386,  3.898669 )
  WF centre   15  (  0.304947, -3.934110,  3.880041 )
  WF centre   16  ( -0.004192, -0.007175,  1.709445 )
  WF centre   17  ( -0.000450, -0.004951,  1.696823 )
  WF centre   18  (  0.009338, -0.084251,  1.778330 )
  WF centre   19  ( -0.004309,  0.109930,  1.705450 )
  WF centre   20  (  0.005738, -0.135398,  1.699277 )
  WF centre   21  (  3.433962, -0.014810,  1.709093 )
  WF centre   22  (  3.468048, -0.001624,  1.696327 )
  WF centre   23  (  3.471065,  0.004083,  1.704203 )
  WF centre   24  (  3.444048,  0.132943,  1.704283 )
  WF centre   25  (  3.543216, -0.110485,  1.708377 )
  WF centre   26  (  0.013166,-11.901028,  1.681175 )
  WF centre   27  ( -0.001364,-11.890966,  1.686954 )
  WF centre   28  (  0.002251,-11.884367,  1.688443 )
  WF centre   29  (  0.006563,-11.754241,  1.677545 )
  WF centre   30  ( -0.018009, 11.856978,  1.683608 )
  WF centre   31  ( -3.434159, -0.019064,  1.722162 )
  WF centre   32  ( -3.469043, -0.004143,  1.693203 )
  WF centre   33  ( -3.468945, -0.070040,  1.777951 )
  WF centre   34  ( -3.440992,  0.104247,  1.711823 )
  WF centre   35  ( -3.550865, -0.115454,  1.716157 )
  WF centre   36  (  1.721261, -8.946547,  1.613743 )
  WF centre   37  (  1.686867, -8.937497,  1.625067 )
  WF centre   38  (  1.690481, -8.932654,  1.620723 )
  WF centre   39  (  1.710615, -8.802858,  1.621596 )
  WF centre   40  (  1.634258, -9.052620,  1.619585 )
  WF centre   41  (  0.012506, -6.003966,  1.627957 )
  WF centre   42  ( -0.032945, -5.995259,  1.670111 )
  WF centre   43  ( -0.008807, -5.977802,  1.654184 )
  WF centre   44  (  0.031961, -5.877622,  1.639754 )
  WF centre   45  ( -0.059009, -6.100407,  1.633569 )
  WF centre   46  ( -1.708486, -3.018071,  1.731853 )
  WF centre   47  ( -1.734902, -3.014005,  1.719049 )
  WF centre   48  ( -1.732930, -3.018460,  1.731908 )
  WF centre   49  ( -1.683311, -2.911776,  1.730969 )
  WF centre   50  ( -1.837325, -3.120173,  1.751388 )
  WF centre   51  ( -5.152578, -2.989675,  1.899619 )
  WF centre   52  (  1.723581,  8.935644,  1.866886 )
  WF centre   53  (  1.733938,  8.938013,  1.911210 )
  WF centre   54  ( -5.119189, -2.890486,  1.890790 )
  WF centre   55  (  1.656324,  8.814557,  1.964666 )
  WF centre   56  (  5.138983, -2.997348,  1.871151 )
  WF centre   57  ( -1.699103,  8.943341,  1.877787 )
  WF centre   58  ( -1.724256,  8.949563,  1.892385 )
  WF centre   59  (  5.125341, -2.890207,  1.863835 )
  WF centre   60  ( -1.608668,  8.854853,  1.897091 )
  WF centre   61  (  1.691490, -3.027448,  1.716971 )
  WF centre   62  (  1.716571, -3.018961,  1.701380 )
  WF centre   63  (  1.728068, -3.007305,  1.712564 )
  WF centre   64  (  1.682774, -2.895000,  1.751476 )
  WF centre   65  (  1.798768, -3.141315,  1.771531 )
  WF centre   66  (  5.160459,  2.989827,  1.615172 )
  WF centre   67  ( -1.692593, -8.936453,  1.621870 )
  WF centre   68  ( -1.690667, -8.930145,  1.619727 )
  WF centre   69  ( -1.713316, -8.795660,  1.621917 )
  WF centre   70  ( -1.630198, -9.046655,  1.618233 )
  WF centre   71  ( -3.388853, -5.993837,  1.698771 )
  WF centre   72  ( -3.407093, -5.987320,  1.741384 )
  WF centre   73  ( -3.394169, -5.966758,  1.704436 )
  WF centre   74  ( -3.357867, -5.858023,  1.705333 )
  WF centre   75  (  3.441051,  5.846770,  1.689767 )
  WF centre   76  (  0.008773,  5.961436,  1.868501 )
  WF centre   77  (  0.042356,  5.978724,  1.935931 )
  WF centre   78  ( -0.001394,  6.012967,  1.898663 )
  WF centre   79  (  0.005694,  6.122637,  1.910737 )
  WF centre   80  (  0.009627,  5.872003,  1.864599 )
  WF centre   81  (  1.748630,  2.999959,  1.706410 )
  WF centre   82  (  1.743264,  3.002384,  1.705898 )
  WF centre   83  (  1.739325,  3.005683,  1.702770 )
  WF centre   84  (  1.743354,  3.144388,  1.707387 )
  WF centre   85  (  1.727863,  2.879937,  1.703592 )
  WF centre   86  ( -1.736228,  3.000365,  1.706172 )
  WF centre   87  ( -1.739355,  3.004423,  1.708239 )
  WF centre   88  ( -1.738765,  3.002458,  1.705832 )
  WF centre   89  ( -1.736859,  3.145647,  1.709461 )
  WF centre   90  ( -1.737060,  2.880080,  1.703946 )
  WF centre   91  (  3.418100, -5.997928,  1.679323 )
  WF centre   92  (  3.369206, -5.994372,  1.718793 )
  WF centre   93  (  3.382626, -5.958010,  1.733050 )
  WF centre   94  (  3.413712, -5.867929,  1.680606 )
  WF centre   95  (  3.359353, -6.095466,  1.680789 )
  WF centre   96  (  1.732850,  1.004301, -0.088935 )
  WF centre   97  (  1.722260,  0.990288,  0.060380 )
  WF centre   98  (  1.729337,  1.002940,  0.057482 )
  WF centre   99  (  1.716654,  0.985446,  3.485197 )
  WF centre  100  (  1.721091,  0.984711,  3.340046 )
  WF centre  101  (  1.721407,  1.000265,  3.339249 )
  WF centre  102  (  5.167627,  0.977676, -0.138853 )
  WF centre  103  (  5.159215,  0.965300,  0.003150 )
  WF centre  104  (  5.163542,  0.979006,  0.004477 )
  WF centre  105  (  5.165477,  1.061869,  3.464250 )
  WF centre  106  (  5.159029,  1.052005,  3.319996 )
  WF centre  107  (  5.166234,  1.056570,  3.320238 )
  WF centre  108  ( -5.167910,  0.979519, -0.142460 )
  WF centre  109  ( -5.153786,  0.966224,  0.004637 )
  WF centre  110  ( -5.164527,  0.974192,  0.001568 )
  WF centre  111  ( -5.156594,  1.049473,  3.464675 )
  WF centre  112  ( -5.155937,  1.048295,  3.318567 )
  WF centre  113  ( -5.160008,  1.055057,  3.321376 )
  WF centre  114  ( -1.731000,  1.003335, -0.086836 )
  WF centre  115  ( -1.723261,  0.990016,  0.065397 )
  WF centre  116  ( -1.729055,  1.003294,  0.056748 )
  WF centre  117  ( -1.724703,  0.973469,  3.484360 )
  WF centre  118  ( -1.720867,  0.976684,  3.340201 )
  WF centre  119  ( -1.726949,  0.985933,  3.347224 )
  WF centre  120  ( -3.424419,  3.989756, -0.140274 )
  WF centre  121  ( -3.423974,  3.977831,  0.009938 )
  WF centre  122  ( -3.422027,  3.993650,  0.003980 )
  WF centre  123  ( -3.509323,  3.953998,  3.462011 )
  WF centre  124  ( -3.497113,  3.935244,  3.318252 )
  WF centre  125  ( -3.504068,  3.966559,  3.325025 )
  WF centre  126  (  1.745303, -4.966227, -0.140962 )
  WF centre  127  (  1.731171, -4.967914,  0.006763 )
  WF centre  128  (  1.737679, -4.941516,  0.008232 )
  WF centre  129  (  1.326968, -4.780475,  3.870079 )
  WF centre  130  (  1.847948, -4.958881,  3.439285 )
  WF centre  131  (  1.722323, -5.254429,  3.452359 )
  WF centre  132  ( -0.006808, -1.997074, -0.071989 )
  WF centre  133  ( -0.003312, -2.012178,  0.062361 )
  WF centre  134  ( -0.003671, -1.982904,  0.066084 )
  WF centre  135  (  0.004451, -2.391111,  3.713878 )
  WF centre  136  ( -0.021992, -1.998653,  3.373927 )
  WF centre  137  ( -0.051317, -1.830940,  3.525153 )
  WF centre  138  ( -3.491733, -2.011848, -0.009060 )
  WF centre  139  ( -3.490102, -2.033129,  0.121204 )
  WF centre  140  ( -3.491135, -2.005502,  0.119692 )
  WF centre  141  ( -3.384188, -2.339977,  3.683352 )
  WF centre  142  ( -3.370179, -1.966404,  3.437836 )
  WF centre  143  ( -3.388836, -1.813856,  3.579552 )
  WF centre  144  (  0.013062,  9.893432,  0.072636 )
  WF centre  145  (  0.007721,  9.890200,  0.189064 )
  WF centre  146  (  0.003220,  9.920272,  0.180800 )
  WF centre  147  (  0.015848, 10.261058,  3.633684 )
  WF centre  148  ( -0.001446, 10.204553,  3.534158 )
  WF centre  149  (  0.001252, 10.120260,  3.521082 )
  WF centre  150  (  3.482123, -2.026402, -0.017272 )
  WF centre  151  (  3.483549, -2.033396,  0.122906 )
  WF centre  152  (  3.489199, -2.008167,  0.117527 )
  WF centre  153  (  3.387904, -1.975893,  3.560899 )
  WF centre  154  (  3.398712, -1.986594,  3.408701 )
  WF centre  155  (  3.396881, -1.962418,  3.409028 )
  WF centre  156  (  0.000505, -7.951664, -0.193684 )
  WF centre  157  ( -0.001868, -7.965291, -0.058333 )
  WF centre  158  ( -0.000686, -7.943525, -0.057317 )
  WF centre  159  (  0.001666, -7.944654,  3.446786 )
  WF centre  160  ( -0.006012, -7.959849,  3.311221 )
  WF centre  161  ( -0.006065, -7.908572,  3.312396 )
  WF centre  162  ( -1.744489, -4.975256, -0.121969 )
  WF centre  163  ( -1.742030, -4.976010,  0.023705 )
  WF centre  164  ( -1.744671, -4.934951,  0.021505 )
  WF centre  165  ( -1.628530, -4.929737,  3.268119 )
  WF centre  166  ( -2.192729, -4.690636,  3.913869 )
  WF centre  167  ( -1.691277, -5.239214,  3.434757 )
  WF centre  168  (  1.679640,  6.979834,  0.058546 )
  WF centre  169  (  1.692051,  6.970514,  0.191303 )
  WF centre  170  (  1.690900,  7.003709,  0.182535 )
  WF centre  171  (  2.217128,  6.976389,  3.835154 )
  WF centre  172  (  0.221567,  7.837907,  5.075837 )
  WF centre  173  (  1.918050,  6.573316,  3.670715 )
  WF centre  174  (  3.430770,  4.001152, -0.130031 )
  WF centre  175  (  3.422245,  3.981925,  0.009298 )
  WF centre  176  (  3.421240,  4.007262,  0.024162 )
  WF centre  177  (  3.505149,  3.957419,  3.465777 )
  WF centre  178  (  3.489486,  3.942103,  3.318676 )
  WF centre  179  (  3.505150,  3.988264,  3.327051 )
  WF centre  180  ( -0.001431,  4.037750, -0.029948 )
  WF centre  181  (  0.003381,  4.023200,  0.119658 )
  WF centre  182  (  0.001199,  4.050752,  0.116935 )
  WF centre  183  (  0.001327,  3.929125,  3.551477 )
  WF centre  184  (  0.008630,  3.912374,  3.401392 )
  WF centre  185  (  0.004361,  3.979193,  3.406526 )
  WF centre  186  ( -1.683185,  6.986677,  0.057821 )
  WF centre  187  ( -1.689751,  6.973871,  0.178948 )
  WF centre  188  ( -1.689324,  6.992128,  0.184481 )
  WF centre  189  ( -2.020353,  6.809458,  3.643876 )
  WF centre  190  ( -1.857859,  6.875979,  3.512099 )
  WF centre  191  ( -1.948057,  6.825874,  3.530946 )
 ------------------------------------------------------------------------------
 

 Wannier centres written to file 3cr.up_centres.xyz
  
  Omega Invariant:   1-s^2 =   314.964459178 (Ang^2)
                   -2log s =   356.365565642 (Ang^2)
                    acos^2 =   340.900980762 (Ang^2)
 Time for wannierise           39.104 (sec)

 Writing checkpoint file 3cr.up.chk... done

 *---------------------------------------------------------------------------*
 |                               PLOTTING                                    |
 *---------------------------------------------------------------------------*
 
    1 lattice points in Wigner-Seitz supercell:

      vector   0   0   0   degeneracy:  1
  tot =        1.000
  mp_grid product =            1
 
 Calculating interpolated band-structure
 
 Time to calculate interpolated band structure       5.929 (sec)
 
 Time for plotting              6.126 (sec)
 Total Execution Time         451.680 (sec)

 *===========================================================================*
 |                             TIMING INFORMATION                            |
 *===========================================================================*
 |    Tag                                                Ncalls      Time (s)|
 |---------------------------------------------------------------------------|
 |kmesh: get                                        :         1         0.012|
 |overlap: allocate                                 :         1         0.002|
 |overlap: read                                     :         1         3.935|
 |dis: main                                         :         1       402.474|
 |wann: main                                        :         1        39.104|
 |plot: main                                        :         1         6.126|
 *---------------------------------------------------------------------------*
 
 All done: wannier90 exiting
