 
             +---------------------------------------------------+
             |                                                   |
             |                   WANNIER90                       |
             |                                                   |
             +---------------------------------------------------+
             |                                                   |
             |        Welcome to the Maximally-Localized         |
             |        Generalized Wannier Functions code         |
             |            http://www.wannier.org                 |
             |                                                   |
             |                                                   |
             |  Wannier90 Developer Group:                       |
             |    Giovanni Pizzi    (EPFL)                       |
             |    Valerio Vitale    (Cambridge)                  |
             |    David Vanderbilt  (Rutgers University)         |
             |    Nicola Marzari    (EPFL)                       |
             |    Ivo Souza         (Universidad del Pais Vasco) |
             |    Arash A. Mostofi  (Imperial College London)    |
             |    Jonathan R. Yates (University of Oxford)       |
             |                                                   |
             |  For the full list of Wannier90 3.x authors,      |
             |  please check the code documentation and the      |
             |  README on the GitHub page of the code            |
             |                                                   |
             |                                                   |
             |  Please cite                                      |
             |                                                   |
             |  [ref] "Wannier90 as a community code:            |
             |        new features and applications",            |
             |        G. Pizzi et al., J. Phys. Cond. Matt. 32,  |
             |        165902 (2020).                             |
             |        http://doi.org/10.1088/1361-648X/ab51ff    |
             |                                                   |
             |  in any publications arising from the use of      |
             |  this code. For the method please cite            |
             |                                                   |
             |  [ref] "Maximally Localized Generalised Wannier   |
             |         Functions for Composite Energy Bands"     |
             |         N. Marzari and D. Vanderbilt              |
             |         Phys. Rev. B 56 12847 (1997)              |
             |                                                   |
             |  [ref] "Maximally Localized Wannier Functions     |
             |         for Entangled Energy Bands"               |
             |         I. Souza, N. Marzari and D. Vanderbilt    |
             |         Phys. Rev. B 65 035109 (2001)             |
             |                                                   |
             |                                                   |
             | Copyright (c) 1996-2020                           |
             |        The Wannier90 Developer Group and          |
             |        individual contributors                    |
             |                                                   |
             |      Release: 3.1.0        5th March    2020      |
             |                                                   |
             | This program is free software; you can            |
             | redistribute it and/or modify it under the terms  |
             | of the GNU General Public License as published by |
             | the Free Software Foundation; either version 2 of |
             | the License, or (at your option) any later version|
             |                                                   |
             | This program is distributed in the hope that it   |
             | will be useful, but WITHOUT ANY WARRANTY; without |
             | even the implied warranty of MERCHANTABILITY or   |
             | FITNESS FOR A PARTICULAR PURPOSE. See the GNU     |
             | General Public License for more details.          |
             |                                                   |
             | You should have received a copy of the GNU General|
             | Public License along with this program; if not,   |
             | write to the Free Software Foundation, Inc.,      |
             | 675 Mass Ave, Cambridge, MA 02139, USA.           |
             |                                                   |
             +---------------------------------------------------+
             |    Execution started on 17Jul2023 at 14:50:11     |
             +---------------------------------------------------+
 
 ******************************************************************************
 * -> Using CODATA 2006 constant values                                       *
 *    (http://physics.nist.gov/cuu/Constants/index.html)                      *
 * -> Using Bohr value from CODATA                                            *
 ******************************************************************************
 

 Running in parallel on  80 CPUs

 
                                    ------
                                    SYSTEM
                                    ------
 
                              Lattice Vectors (Ang)
                    a_1    13.784171   0.000000   0.000000
                    a_2    -6.892085  11.937442   0.000000
                    a_3     0.000000   0.000000  23.631430
 
                   Unit Cell Volume:    3888.49848  (Ang^3)
 
                        Reciprocal-Space Vectors (Ang^-1)
                    b_1     0.455826   0.263171   0.000000
                    b_2     0.000000   0.526343   0.000000
                    b_3     0.000000   0.000000   0.265883
  
 *----------------------------------------------------------------------------*
 |   Site       Fractional Coordinate          Cartesian Coordinate (Ang)     |
 +----------------------------------------------------------------------------+
 | Cr   1   0.66667   0.58333   0.23874   |    5.16906   6.96351   5.64177    |
 | Nb   1  -0.00388   0.00042   0.07111   |   -0.05638   0.00505   1.68047    |
 | Nb   2   0.25120  -0.00120   0.07108   |    3.47081  -0.01430   1.67974    |
 | Nb   3   0.49760  -0.00120   0.07108   |    6.86732  -0.01430   1.67974    |
 | Nb   4   0.75430   0.00042   0.07111   |   10.39451   0.00505   1.68047    |
 | Nb   5   0.75430   0.25388   0.07111   |    8.64767   3.03067   1.68047    |
 | Nb   6   0.75582   0.49418   0.07027   |    7.01234   5.89929   1.66051    |
 | Nb   7   0.75582   0.76163   0.07027   |    5.16906   9.09194   1.66051    |
 | Nb   8   0.49926   0.75074   0.07073   |    1.70770   8.96193   1.67138    |
 | Nb   9   0.25120   0.75240   0.07108   |   -1.72302   8.98168   1.67974    |
 | Nb  10   0.00148   0.75074   0.07073   |   -5.15375   8.96193   1.67138    |
 | Nb  11   0.49926   0.24852   0.07073   |    5.16906   2.96667   1.67138    |
 | Nb  12   0.48837   0.49418   0.07027   |    3.32579   5.89929   1.66051    |
 | Nb  13   0.24958   0.49570   0.07111   |    0.02382   5.91737   1.68047    |
 | Nb  14   0.24958   0.25388   0.07111   |    1.69046   3.03067   1.68047    |
 | Nb  15   0.00000   0.25000   0.07114   |   -1.72302   2.98436   1.68116    |
 | Nb  16  -0.00388   0.49570   0.07111   |   -3.46986   5.91737   1.68047    |
 | Se   1   0.16669   0.08331   0.00109   |    1.72354   0.99449   0.02565    |
 | Se   2   0.16661   0.08339   0.14113   |    1.72189   0.99544   3.33507    |
 | Se   3   0.41638   0.08275  -0.00112   |    5.16906   0.98783  -0.02635    |
 | Se   4   0.41681   0.08361   0.14308   |    5.16906   0.99811   3.38115    |
 | Se   5   0.66662   0.08331   0.00109   |    8.61459   0.99449   0.02565    |
 | Se   6   0.66678   0.08339   0.14113   |    8.61624   0.99544   3.33507    |
 | Se   7   0.91731   0.08463  -0.00145   |   12.06115   1.01021  -0.03425    |
 | Se   8   0.91729   0.08459   0.14373   |   12.06115   1.00975   3.39647    |
 | Se   9   0.91731   0.33269  -0.00145   |   10.35148   3.97144  -0.03425    |
 | Se  10   0.91729   0.33271   0.14373   |   10.35108   3.97167   3.39647    |
 | Se  11   0.91901   0.58442  -0.00106   |    8.63988   6.97654  -0.02496    |
 | Se  12   0.91812   0.58420   0.14299   |    8.62919   6.97384   3.37905    |
 | Se  13   0.91901   0.83458  -0.00106   |    6.91576   9.96281  -0.02496    |
 | Se  14   0.91812   0.83392   0.14299   |    6.90807   9.95490   3.37905    |
 | Se  15   0.66558   0.83458  -0.00106   |    3.42237   9.96281  -0.02496    |
 | Se  16   0.66580   0.83392   0.14299   |    3.43006   9.95490   3.37905    |
 | Se  17   0.41638   0.83362  -0.00112   |   -0.00603   9.95135  -0.02635    |
 | Se  18   0.41681   0.83319   0.14308   |    0.00288   9.94621   3.38115    |
 | Se  19   0.16725   0.83362  -0.00112   |   -3.44002   9.95135  -0.02635    |
 | Se  20   0.16639   0.83319   0.14308   |   -3.44892   9.94621   3.38115    |
 | Se  21   0.66558   0.33099  -0.00106   |    6.89319   3.95118  -0.02496    |
 | Se  22   0.66580   0.33188   0.14299   |    6.89018   3.96179   3.37905    |
 | Se  23   0.66667   0.58333   0.00485   |    5.16906   6.96351   0.11465    |
 | Se  24   0.66667   0.58333   0.13633   |    5.16906   6.96351   3.22166    |
 | Se  25   0.41542   0.58442  -0.00106   |    1.69825   6.97654  -0.02496    |
 | Se  26   0.41608   0.58420   0.14299   |    1.70894   6.97384   3.37905    |
 | Se  27   0.41542   0.33099  -0.00106   |    3.44494   3.95118  -0.02496    |
 | Se  28   0.41608   0.33188   0.14299   |    3.44795   3.96179   3.37905    |
 | Se  29   0.16537   0.33269  -0.00145   |   -0.01336   3.97144  -0.03425    |
 | Se  30   0.16541   0.33271   0.14373   |   -0.01295   3.97167   3.39647    |
 | Se  31   0.16669   0.58338   0.00109   |   -1.72302   6.96410   0.02565    |
 | Se  32   0.16661   0.58322   0.14113   |   -1.72302   6.96220   3.33507    |
 *----------------------------------------------------------------------------*
                                -----------
                                PROJECTIONS
                                -----------
  
 +----------------------------------------------------------------------------+
 |     Frac. Coord.   l mr  r        z-axis               x-axis          Z/a |
 +----------------------------------------------------------------------------+
 |  0.67  0.58  0.24  2  1  1  0.000  0.000  1.000  1.000  0.000  0.000   1.0 |
 |  0.67  0.58  0.24  2  2  1  0.000  0.000  1.000  1.000  0.000  0.000   1.0 |
 |  0.67  0.58  0.24  2  3  1  0.000  0.000  1.000  1.000  0.000  0.000   1.0 |
 |  0.67  0.58  0.24  2  4  1  0.000  0.000  1.000  1.000  0.000  0.000   1.0 |
 |  0.67  0.58  0.24  2  5  1  0.000  0.000  1.000  1.000  0.000  0.000   1.0 |
 | -0.00  0.00  0.07  2  1  1  0.000  0.000  1.000  1.000  0.000  0.000   1.0 |
 | -0.00  0.00  0.07  2  2  1  0.000  0.000  1.000  1.000  0.000  0.000   1.0 |
 | -0.00  0.00  0.07  2  3  1  0.000  0.000  1.000  1.000  0.000  0.000   1.0 |
 | -0.00  0.00  0.07  2  4  1  0.000  0.000  1.000  1.000  0.000  0.000   1.0 |
 | -0.00  0.00  0.07  2  5  1  0.000  0.000  1.000  1.000  0.000  0.000   1.0 |
 |  0.25 -0.00  0.07  2  1  1  0.000  0.000  1.000  1.000  0.000  0.000   1.0 |
 |  0.25 -0.00  0.07  2  2  1  0.000  0.000  1.000  1.000  0.000  0.000   1.0 |
 |  0.25 -0.00  0.07  2  3  1  0.000  0.000  1.000  1.000  0.000  0.000   1.0 |
 |  0.25 -0.00  0.07  2  4  1  0.000  0.000  1.000  1.000  0.000  0.000   1.0 |
 |  0.25 -0.00  0.07  2  5  1  0.000  0.000  1.000  1.000  0.000  0.000   1.0 |
 |  0.50 -0.00  0.07  2  1  1  0.000  0.000  1.000  1.000  0.000  0.000   1.0 |
 |  0.50 -0.00  0.07  2  2  1  0.000  0.000  1.000  1.000  0.000  0.000   1.0 |
 |  0.50 -0.00  0.07  2  3  1  0.000  0.000  1.000  1.000  0.000  0.000   1.0 |
 |  0.50 -0.00  0.07  2  4  1  0.000  0.000  1.000  1.000  0.000  0.000   1.0 |
 |  0.50 -0.00  0.07  2  5  1  0.000  0.000  1.000  1.000  0.000  0.000   1.0 |
 |  0.75  0.00  0.07  2  1  1  0.000  0.000  1.000  1.000  0.000  0.000   1.0 |
 |  0.75  0.00  0.07  2  2  1  0.000  0.000  1.000  1.000  0.000  0.000   1.0 |
 |  0.75  0.00  0.07  2  3  1  0.000  0.000  1.000  1.000  0.000  0.000   1.0 |
 |  0.75  0.00  0.07  2  4  1  0.000  0.000  1.000  1.000  0.000  0.000   1.0 |
 |  0.75  0.00  0.07  2  5  1  0.000  0.000  1.000  1.000  0.000  0.000   1.0 |
 |  0.75  0.25  0.07  2  1  1  0.000  0.000  1.000  1.000  0.000  0.000   1.0 |
 |  0.75  0.25  0.07  2  2  1  0.000  0.000  1.000  1.000  0.000  0.000   1.0 |
 |  0.75  0.25  0.07  2  3  1  0.000  0.000  1.000  1.000  0.000  0.000   1.0 |
 |  0.75  0.25  0.07  2  4  1  0.000  0.000  1.000  1.000  0.000  0.000   1.0 |
 |  0.75  0.25  0.07  2  5  1  0.000  0.000  1.000  1.000  0.000  0.000   1.0 |
 |  0.76  0.49  0.07  2  1  1  0.000  0.000  1.000  1.000  0.000  0.000   1.0 |
 |  0.76  0.49  0.07  2  2  1  0.000  0.000  1.000  1.000  0.000  0.000   1.0 |
 |  0.76  0.49  0.07  2  3  1  0.000  0.000  1.000  1.000  0.000  0.000   1.0 |
 |  0.76  0.49  0.07  2  4  1  0.000  0.000  1.000  1.000  0.000  0.000   1.0 |
 |  0.76  0.49  0.07  2  5  1  0.000  0.000  1.000  1.000  0.000  0.000   1.0 |
 |  0.76  0.76  0.07  2  1  1  0.000  0.000  1.000  1.000  0.000  0.000   1.0 |
 |  0.76  0.76  0.07  2  2  1  0.000  0.000  1.000  1.000  0.000  0.000   1.0 |
 |  0.76  0.76  0.07  2  3  1  0.000  0.000  1.000  1.000  0.000  0.000   1.0 |
 |  0.76  0.76  0.07  2  4  1  0.000  0.000  1.000  1.000  0.000  0.000   1.0 |
 |  0.76  0.76  0.07  2  5  1  0.000  0.000  1.000  1.000  0.000  0.000   1.0 |
 |  0.50  0.75  0.07  2  1  1  0.000  0.000  1.000  1.000  0.000  0.000   1.0 |
 |  0.50  0.75  0.07  2  2  1  0.000  0.000  1.000  1.000  0.000  0.000   1.0 |
 |  0.50  0.75  0.07  2  3  1  0.000  0.000  1.000  1.000  0.000  0.000   1.0 |
 |  0.50  0.75  0.07  2  4  1  0.000  0.000  1.000  1.000  0.000  0.000   1.0 |
 |  0.50  0.75  0.07  2  5  1  0.000  0.000  1.000  1.000  0.000  0.000   1.0 |
 |  0.25  0.75  0.07  2  1  1  0.000  0.000  1.000  1.000  0.000  0.000   1.0 |
 |  0.25  0.75  0.07  2  2  1  0.000  0.000  1.000  1.000  0.000  0.000   1.0 |
 |  0.25  0.75  0.07  2  3  1  0.000  0.000  1.000  1.000  0.000  0.000   1.0 |
 |  0.25  0.75  0.07  2  4  1  0.000  0.000  1.000  1.000  0.000  0.000   1.0 |
 |  0.25  0.75  0.07  2  5  1  0.000  0.000  1.000  1.000  0.000  0.000   1.0 |
 |  0.00  0.75  0.07  2  1  1  0.000  0.000  1.000  1.000  0.000  0.000   1.0 |
 |  0.00  0.75  0.07  2  2  1  0.000  0.000  1.000  1.000  0.000  0.000   1.0 |
 |  0.00  0.75  0.07  2  3  1  0.000  0.000  1.000  1.000  0.000  0.000   1.0 |
 |  0.00  0.75  0.07  2  4  1  0.000  0.000  1.000  1.000  0.000  0.000   1.0 |
 |  0.00  0.75  0.07  2  5  1  0.000  0.000  1.000  1.000  0.000  0.000   1.0 |
 |  0.50  0.25  0.07  2  1  1  0.000  0.000  1.000  1.000  0.000  0.000   1.0 |
 |  0.50  0.25  0.07  2  2  1  0.000  0.000  1.000  1.000  0.000  0.000   1.0 |
 |  0.50  0.25  0.07  2  3  1  0.000  0.000  1.000  1.000  0.000  0.000   1.0 |
 |  0.50  0.25  0.07  2  4  1  0.000  0.000  1.000  1.000  0.000  0.000   1.0 |
 |  0.50  0.25  0.07  2  5  1  0.000  0.000  1.000  1.000  0.000  0.000   1.0 |
 |  0.49  0.49  0.07  2  1  1  0.000  0.000  1.000  1.000  0.000  0.000   1.0 |
 |  0.49  0.49  0.07  2  2  1  0.000  0.000  1.000  1.000  0.000  0.000   1.0 |
 |  0.49  0.49  0.07  2  3  1  0.000  0.000  1.000  1.000  0.000  0.000   1.0 |
 |  0.49  0.49  0.07  2  4  1  0.000  0.000  1.000  1.000  0.000  0.000   1.0 |
 |  0.49  0.49  0.07  2  5  1  0.000  0.000  1.000  1.000  0.000  0.000   1.0 |
 |  0.25  0.50  0.07  2  1  1  0.000  0.000  1.000  1.000  0.000  0.000   1.0 |
 |  0.25  0.50  0.07  2  2  1  0.000  0.000  1.000  1.000  0.000  0.000   1.0 |
 |  0.25  0.50  0.07  2  3  1  0.000  0.000  1.000  1.000  0.000  0.000   1.0 |
 |  0.25  0.50  0.07  2  4  1  0.000  0.000  1.000  1.000  0.000  0.000   1.0 |
 |  0.25  0.50  0.07  2  5  1  0.000  0.000  1.000  1.000  0.000  0.000   1.0 |
 |  0.25  0.25  0.07  2  1  1  0.000  0.000  1.000  1.000  0.000  0.000   1.0 |
 |  0.25  0.25  0.07  2  2  1  0.000  0.000  1.000  1.000  0.000  0.000   1.0 |
 |  0.25  0.25  0.07  2  3  1  0.000  0.000  1.000  1.000  0.000  0.000   1.0 |
 |  0.25  0.25  0.07  2  4  1  0.000  0.000  1.000  1.000  0.000  0.000   1.0 |
 |  0.25  0.25  0.07  2  5  1  0.000  0.000  1.000  1.000  0.000  0.000   1.0 |
 |  0.00  0.25  0.07  2  1  1  0.000  0.000  1.000  1.000  0.000  0.000   1.0 |
 |  0.00  0.25  0.07  2  2  1  0.000  0.000  1.000  1.000  0.000  0.000   1.0 |
 |  0.00  0.25  0.07  2  3  1  0.000  0.000  1.000  1.000  0.000  0.000   1.0 |
 |  0.00  0.25  0.07  2  4  1  0.000  0.000  1.000  1.000  0.000  0.000   1.0 |
 |  0.00  0.25  0.07  2  5  1  0.000  0.000  1.000  1.000  0.000  0.000   1.0 |
 | -0.00  0.50  0.07  2  1  1  0.000  0.000  1.000  1.000  0.000  0.000   1.0 |
 | -0.00  0.50  0.07  2  2  1  0.000  0.000  1.000  1.000  0.000  0.000   1.0 |
 | -0.00  0.50  0.07  2  3  1  0.000  0.000  1.000  1.000  0.000  0.000   1.0 |
 | -0.00  0.50  0.07  2  4  1  0.000  0.000  1.000  1.000  0.000  0.000   1.0 |
 | -0.00  0.50  0.07  2  5  1  0.000  0.000  1.000  1.000  0.000  0.000   1.0 |
 |  0.17  0.08  0.00  1  1  1  0.000  0.000  1.000  1.000  0.000  0.000   1.0 |
 |  0.17  0.08  0.00  1  2  1  0.000  0.000  1.000  1.000  0.000  0.000   1.0 |
 |  0.17  0.08  0.00  1  3  1  0.000  0.000  1.000  1.000  0.000  0.000   1.0 |
 |  0.17  0.08  0.14  1  1  1  0.000  0.000  1.000  1.000  0.000  0.000   1.0 |
 |  0.17  0.08  0.14  1  2  1  0.000  0.000  1.000  1.000  0.000  0.000   1.0 |
 |  0.17  0.08  0.14  1  3  1  0.000  0.000  1.000  1.000  0.000  0.000   1.0 |
 |  0.42  0.08 -0.00  1  1  1  0.000  0.000  1.000  1.000  0.000  0.000   1.0 |
 |  0.42  0.08 -0.00  1  2  1  0.000  0.000  1.000  1.000  0.000  0.000   1.0 |
 |  0.42  0.08 -0.00  1  3  1  0.000  0.000  1.000  1.000  0.000  0.000   1.0 |
 |  0.42  0.08  0.14  1  1  1  0.000  0.000  1.000  1.000  0.000  0.000   1.0 |
 |  0.42  0.08  0.14  1  2  1  0.000  0.000  1.000  1.000  0.000  0.000   1.0 |
 |  0.42  0.08  0.14  1  3  1  0.000  0.000  1.000  1.000  0.000  0.000   1.0 |
 |  0.67  0.08  0.00  1  1  1  0.000  0.000  1.000  1.000  0.000  0.000   1.0 |
 |  0.67  0.08  0.00  1  2  1  0.000  0.000  1.000  1.000  0.000  0.000   1.0 |
 |  0.67  0.08  0.00  1  3  1  0.000  0.000  1.000  1.000  0.000  0.000   1.0 |
 |  0.67  0.08  0.14  1  1  1  0.000  0.000  1.000  1.000  0.000  0.000   1.0 |
 |  0.67  0.08  0.14  1  2  1  0.000  0.000  1.000  1.000  0.000  0.000   1.0 |
 |  0.67  0.08  0.14  1  3  1  0.000  0.000  1.000  1.000  0.000  0.000   1.0 |
 |  0.92  0.08 -0.00  1  1  1  0.000  0.000  1.000  1.000  0.000  0.000   1.0 |
 |  0.92  0.08 -0.00  1  2  1  0.000  0.000  1.000  1.000  0.000  0.000   1.0 |
 |  0.92  0.08 -0.00  1  3  1  0.000  0.000  1.000  1.000  0.000  0.000   1.0 |
 |  0.92  0.08  0.14  1  1  1  0.000  0.000  1.000  1.000  0.000  0.000   1.0 |
 |  0.92  0.08  0.14  1  2  1  0.000  0.000  1.000  1.000  0.000  0.000   1.0 |
 |  0.92  0.08  0.14  1  3  1  0.000  0.000  1.000  1.000  0.000  0.000   1.0 |
 |  0.92  0.33 -0.00  1  1  1  0.000  0.000  1.000  1.000  0.000  0.000   1.0 |
 |  0.92  0.33 -0.00  1  2  1  0.000  0.000  1.000  1.000  0.000  0.000   1.0 |
 |  0.92  0.33 -0.00  1  3  1  0.000  0.000  1.000  1.000  0.000  0.000   1.0 |
 |  0.92  0.33  0.14  1  1  1  0.000  0.000  1.000  1.000  0.000  0.000   1.0 |
 |  0.92  0.33  0.14  1  2  1  0.000  0.000  1.000  1.000  0.000  0.000   1.0 |
 |  0.92  0.33  0.14  1  3  1  0.000  0.000  1.000  1.000  0.000  0.000   1.0 |
 |  0.92  0.58 -0.00  1  1  1  0.000  0.000  1.000  1.000  0.000  0.000   1.0 |
 |  0.92  0.58 -0.00  1  2  1  0.000  0.000  1.000  1.000  0.000  0.000   1.0 |
 |  0.92  0.58 -0.00  1  3  1  0.000  0.000  1.000  1.000  0.000  0.000   1.0 |
 |  0.92  0.58  0.14  1  1  1  0.000  0.000  1.000  1.000  0.000  0.000   1.0 |
 |  0.92  0.58  0.14  1  2  1  0.000  0.000  1.000  1.000  0.000  0.000   1.0 |
 |  0.92  0.58  0.14  1  3  1  0.000  0.000  1.000  1.000  0.000  0.000   1.0 |
 |  0.92  0.83 -0.00  1  1  1  0.000  0.000  1.000  1.000  0.000  0.000   1.0 |
 |  0.92  0.83 -0.00  1  2  1  0.000  0.000  1.000  1.000  0.000  0.000   1.0 |
 |  0.92  0.83 -0.00  1  3  1  0.000  0.000  1.000  1.000  0.000  0.000   1.0 |
 |  0.92  0.83  0.14  1  1  1  0.000  0.000  1.000  1.000  0.000  0.000   1.0 |
 |  0.92  0.83  0.14  1  2  1  0.000  0.000  1.000  1.000  0.000  0.000   1.0 |
 |  0.92  0.83  0.14  1  3  1  0.000  0.000  1.000  1.000  0.000  0.000   1.0 |
 |  0.67  0.83 -0.00  1  1  1  0.000  0.000  1.000  1.000  0.000  0.000   1.0 |
 |  0.67  0.83 -0.00  1  2  1  0.000  0.000  1.000  1.000  0.000  0.000   1.0 |
 |  0.67  0.83 -0.00  1  3  1  0.000  0.000  1.000  1.000  0.000  0.000   1.0 |
 |  0.67  0.83  0.14  1  1  1  0.000  0.000  1.000  1.000  0.000  0.000   1.0 |
 |  0.67  0.83  0.14  1  2  1  0.000  0.000  1.000  1.000  0.000  0.000   1.0 |
 |  0.67  0.83  0.14  1  3  1  0.000  0.000  1.000  1.000  0.000  0.000   1.0 |
 |  0.42  0.83 -0.00  1  1  1  0.000  0.000  1.000  1.000  0.000  0.000   1.0 |
 |  0.42  0.83 -0.00  1  2  1  0.000  0.000  1.000  1.000  0.000  0.000   1.0 |
 |  0.42  0.83 -0.00  1  3  1  0.000  0.000  1.000  1.000  0.000  0.000   1.0 |
 |  0.42  0.83  0.14  1  1  1  0.000  0.000  1.000  1.000  0.000  0.000   1.0 |
 |  0.42  0.83  0.14  1  2  1  0.000  0.000  1.000  1.000  0.000  0.000   1.0 |
 |  0.42  0.83  0.14  1  3  1  0.000  0.000  1.000  1.000  0.000  0.000   1.0 |
 |  0.17  0.83 -0.00  1  1  1  0.000  0.000  1.000  1.000  0.000  0.000   1.0 |
 |  0.17  0.83 -0.00  1  2  1  0.000  0.000  1.000  1.000  0.000  0.000   1.0 |
 |  0.17  0.83 -0.00  1  3  1  0.000  0.000  1.000  1.000  0.000  0.000   1.0 |
 |  0.17  0.83  0.14  1  1  1  0.000  0.000  1.000  1.000  0.000  0.000   1.0 |
 |  0.17  0.83  0.14  1  2  1  0.000  0.000  1.000  1.000  0.000  0.000   1.0 |
 |  0.17  0.83  0.14  1  3  1  0.000  0.000  1.000  1.000  0.000  0.000   1.0 |
 |  0.67  0.33 -0.00  1  1  1  0.000  0.000  1.000  1.000  0.000  0.000   1.0 |
 |  0.67  0.33 -0.00  1  2  1  0.000  0.000  1.000  1.000  0.000  0.000   1.0 |
 |  0.67  0.33 -0.00  1  3  1  0.000  0.000  1.000  1.000  0.000  0.000   1.0 |
 |  0.67  0.33  0.14  1  1  1  0.000  0.000  1.000  1.000  0.000  0.000   1.0 |
 |  0.67  0.33  0.14  1  2  1  0.000  0.000  1.000  1.000  0.000  0.000   1.0 |
 |  0.67  0.33  0.14  1  3  1  0.000  0.000  1.000  1.000  0.000  0.000   1.0 |
 |  0.67  0.58  0.00  1  1  1  0.000  0.000  1.000  1.000  0.000  0.000   1.0 |
 |  0.67  0.58  0.00  1  2  1  0.000  0.000  1.000  1.000  0.000  0.000   1.0 |
 |  0.67  0.58  0.00  1  3  1  0.000  0.000  1.000  1.000  0.000  0.000   1.0 |
 |  0.67  0.58  0.14  1  1  1  0.000  0.000  1.000  1.000  0.000  0.000   1.0 |
 |  0.67  0.58  0.14  1  2  1  0.000  0.000  1.000  1.000  0.000  0.000   1.0 |
 |  0.67  0.58  0.14  1  3  1  0.000  0.000  1.000  1.000  0.000  0.000   1.0 |
 |  0.42  0.58 -0.00  1  1  1  0.000  0.000  1.000  1.000  0.000  0.000   1.0 |
 |  0.42  0.58 -0.00  1  2  1  0.000  0.000  1.000  1.000  0.000  0.000   1.0 |
 |  0.42  0.58 -0.00  1  3  1  0.000  0.000  1.000  1.000  0.000  0.000   1.0 |
 |  0.42  0.58  0.14  1  1  1  0.000  0.000  1.000  1.000  0.000  0.000   1.0 |
 |  0.42  0.58  0.14  1  2  1  0.000  0.000  1.000  1.000  0.000  0.000   1.0 |
 |  0.42  0.58  0.14  1  3  1  0.000  0.000  1.000  1.000  0.000  0.000   1.0 |
 |  0.42  0.33 -0.00  1  1  1  0.000  0.000  1.000  1.000  0.000  0.000   1.0 |
 |  0.42  0.33 -0.00  1  2  1  0.000  0.000  1.000  1.000  0.000  0.000   1.0 |
 |  0.42  0.33 -0.00  1  3  1  0.000  0.000  1.000  1.000  0.000  0.000   1.0 |
 |  0.42  0.33  0.14  1  1  1  0.000  0.000  1.000  1.000  0.000  0.000   1.0 |
 |  0.42  0.33  0.14  1  2  1  0.000  0.000  1.000  1.000  0.000  0.000   1.0 |
 |  0.42  0.33  0.14  1  3  1  0.000  0.000  1.000  1.000  0.000  0.000   1.0 |
 |  0.17  0.33 -0.00  1  1  1  0.000  0.000  1.000  1.000  0.000  0.000   1.0 |
 |  0.17  0.33 -0.00  1  2  1  0.000  0.000  1.000  1.000  0.000  0.000   1.0 |
 |  0.17  0.33 -0.00  1  3  1  0.000  0.000  1.000  1.000  0.000  0.000   1.0 |
 |  0.17  0.33  0.14  1  1  1  0.000  0.000  1.000  1.000  0.000  0.000   1.0 |
 |  0.17  0.33  0.14  1  2  1  0.000  0.000  1.000  1.000  0.000  0.000   1.0 |
 |  0.17  0.33  0.14  1  3  1  0.000  0.000  1.000  1.000  0.000  0.000   1.0 |
 |  0.17  0.58  0.00  1  1  1  0.000  0.000  1.000  1.000  0.000  0.000   1.0 |
 |  0.17  0.58  0.00  1  2  1  0.000  0.000  1.000  1.000  0.000  0.000   1.0 |
 |  0.17  0.58  0.00  1  3  1  0.000  0.000  1.000  1.000  0.000  0.000   1.0 |
 |  0.17  0.58  0.14  1  1  1  0.000  0.000  1.000  1.000  0.000  0.000   1.0 |
 |  0.17  0.58  0.14  1  2  1  0.000  0.000  1.000  1.000  0.000  0.000   1.0 |
 |  0.17  0.58  0.14  1  3  1  0.000  0.000  1.000  1.000  0.000  0.000   1.0 |
 +----------------------------------------------------------------------------+
  
                                ------------
                                K-POINT GRID
                                ------------
  
             Grid size =  4 x  4 x  1      Total points =   16
  
 *----------------------------------------------------------------------------*
 | k-point      Fractional Coordinate        Cartesian Coordinate (Ang^-1)    |
 +----------------------------------------------------------------------------+
 |     1    0.00000   0.00000   0.00000   |    0.00000   0.00000   0.00000    |
 |     2    0.00000   0.25000   0.00000   |    0.00000   0.13159   0.00000    |
 |     3    0.00000   0.50000   0.00000   |    0.00000   0.26317   0.00000    |
 |     4    0.00000   0.75000   0.00000   |    0.00000   0.39476   0.00000    |
 |     5    0.25000   0.00000   0.00000   |    0.11396   0.06579   0.00000    |
 |     6    0.25000   0.25000   0.00000   |    0.11396   0.19738   0.00000    |
 |     7    0.25000   0.50000   0.00000   |    0.11396   0.32896   0.00000    |
 |     8    0.25000   0.75000   0.00000   |    0.11396   0.46055   0.00000    |
 |     9    0.50000   0.00000   0.00000   |    0.22791   0.13159   0.00000    |
 |    10    0.50000   0.25000   0.00000   |    0.22791   0.26317   0.00000    |
 |    11    0.50000   0.50000   0.00000   |    0.22791   0.39476   0.00000    |
 |    12    0.50000   0.75000   0.00000   |    0.22791   0.52634   0.00000    |
 |    13    0.75000   0.00000   0.00000   |    0.34187   0.19738   0.00000    |
 |    14    0.75000   0.25000   0.00000   |    0.34187   0.32896   0.00000    |
 |    15    0.75000   0.50000   0.00000   |    0.34187   0.46055   0.00000    |
 |    16    0.75000   0.75000   0.00000   |    0.34187   0.59214   0.00000    |
 *----------------------------------------------------------------------------*
  
  
 *---------------------------------- MAIN ------------------------------------*
 |  Number of Wannier Functions               :               181             |
 |  Number of Objective Wannier Functions     :               181             |
 |  Number of input Bloch states              :               450             |
 |  Output verbosity (1=low, 5=high)          :                 3             |
 |  Timing Level (1=low, 5=high)              :                 1             |
 |  Optimisation (0=memory, 3=speed)          :                 3             |
 |  Length Unit                               :               Ang             |
 |  Post-processing setup (write *.nnkp)      :                 F             |
 |  Using Gamma-only branch of algorithms     :                 F             |
 |  CP code post-processing                   :                 F             |
 |  Wavefunction (UNK) file-type              :       unformatted             |
 |  Wavefunction spin channel                 :                up             |
 *----------------------------------------------------------------------------*
 *------------------------------- WANNIERISE ---------------------------------*
 |  Total number of iterations                :               500             |
 |  Number of CG steps before reset           :                 5             |
 |  Trial step length for line search         :             2.000             |
 |  Convergence tolerence                     :         0.100E-09             |
 |  Convergence window                        :                -1             |
 |  Iterations between writing output         :                50             |
 |  Iterations between backing up to disk     :               100             |
 |  Write r^2_nm to file                      :                 F             |
 |  Write xyz WF centres to file              :                 T             |
 |  Write on-site energies <0n|H|0n> to file  :                 F             |
 |  Use guiding centre to control phases      :                 T             |
 |  Use phases for initial projections        :                 F             |
 |  Iterations before starting guiding centres:                 0             |
 |  Iterations between using guiding centres  :                 1             |
 |  Perform selective localization            :                 F             |
 |  Use constrains in selective localization  :                 F             |
 |  Value of the Lagrange multiplier          :         0.100E+01             |
 *----------------------------------------------------------------------------*
 *------------------------------- DISENTANGLE --------------------------------*
 |  Using band disentanglement                :                 T             |
 |  Total number of iterations                :              4000             |
 |  Mixing ratio                              :             0.500             |
 |  Convergence tolerence                     :         1.000E-10             |
 |  Convergence window                        :                 3             |
 *----------------------------------------------------------------------------*
 *-------------------------------- PLOTTING ----------------------------------*
 |  Plotting Wannier functions                :                 F             |
 |   Size of supercell for plotting           :     2x    2x    2             |
 |   Plotting mode (molecule or crystal)      :           crystal             |
 |   Plotting format                          :          xcrysden             |
 |   Plot radius                              :             3.500             |
 |   Plot scale                               :             1.000             |
 *----------------------------------------------------------------------------*
 |  Plotting Fermi surface                    :                 F             |
 |   Number of plotting points (along b_1)    :                50             |
 |   Plotting format                          :          xcrysden             |
 *----------------------------------------------------------------------------*
 |  Plotting interpolated bandstructure       :                 T             |
 |   Number of K-path sections                :                 3             |
 |   Divisions along first K-path section     :               100             |
 |   Output format                            :           gnuplot             |
 |   Output mode                              :               s-k             |
 *----------------------------------------------------------------------------*
 |   K-space path sections:                                                   |
 |    From: Γ      0.000  0.000  0.000     To: M       0.500  0.000  0.000   |
 |    From: M       0.500  0.000  0.000     To: K       0.333  0.333  0.000   |
 |    From: K       0.333  0.333  0.000     To: Γ      0.000  0.000  0.000   |
 *----------------------------------------------------------------------------*
 |  Plotting Hamiltonian in WF basis          :                 T             |
 *----------------------------------------------------------------------------*
 |  Writing data for Van der Waals post-proc  :                 F             |
 *----------------------------------------------------------------------------*
 *------------------------------- TRANSPORT ----------------------------------*
 |  Transport mode                            :              bulk             |
 |   Hamiltonian from external files          :                 F             |
 |   System extended in                       :              none             |
 |   Centre of the unit cell to which WF are translated (fract. coords):      |
 |                                       0.000000,    0.000000,    0.000000   |
 |  Fermi energy (eV)                         :             0.000             |
 *----------------------------------------------------------------------------*
 Time to read parameters        0.039 (sec)

 *---------------------------------- K-MESH ----------------------------------*
 +----------------------------------------------------------------------------+
 |                    Distance to Nearest-Neighbour Shells                    |
 |                    ------------------------------------                    |
 |          Shell             Distance (Ang^-1)          Multiplicity         |
 |          -----             -----------------          ------------         |
 |             1                   0.131586                      6            |
 |             2                   0.227913                      6            |
 |             3                   0.263171                      6            |
 |             4                   0.265883                      2            |
 |             5                   0.296662                     12            |
 |             6                   0.348143                     12            |
 |             7                   0.350197                     12            |
 |             8                   0.374103                     12            |
 |             9                   0.394757                      6            |
 |            10                   0.438061                     24            |
 |            11                   0.455826                      6            |
 |            12                   0.474439                     12            |
 |            13                   0.475948                     12            |
 |            14                   0.526343                      6            |
 |            15                   0.527704                     12            |
 |            16                   0.531765                      2            |
 |            17                   0.543862                     24            |
 |            18                   0.547804                     12            |
 |            19                   0.573569                     12            |
 |            20                   0.578549                     12            |
 |            21                   0.589686                     12            |
 |            22                   0.593324                     12            |
 |            23                   0.603001                     12            |
 |            24                   0.632198                     24            |
 |            25                   0.635592                     24            |
 |            26                   0.657928                      6            |
 |            27                   0.659018                     24            |
 |            28                   0.662274                     12            |
 |            29                   0.683739                      6            |
 |            30                   0.696286                     12            |
 |            31                   0.700394                     12            |
 |            32                   0.709622                     12            |
 |            33                   0.712647                     24            |
 |            34                   0.732638                     12            |
 |            35                   0.733616                     12            |
 |            36                   0.745324                     24            |
 +----------------------------------------------------------------------------+
 | The b-vectors are chosen automatically                                     |
 | Shell:  1 Multiplicity:  6                                                 |
 | b-vector 1 :        0.000000    0.131586    0.000000      (Ang^-1)         |
 | b-vector 2 :        0.113957    0.065793    0.000000      (Ang^-1)         |
 | b-vector 3 :        0.000000   -0.131586    0.000000      (Ang^-1)         |
 | b-vector 4 :        0.113957   -0.065793    0.000000      (Ang^-1)         |
 | b-vector 5 :       -0.113957   -0.065793    0.000000      (Ang^-1)         |
 | b-vector 6 :       -0.113957    0.065793    0.000000      (Ang^-1)         |
 | Shell:  1 w_b   19.2513662      (Ang^2)                                    |
 | B1 condition is not satisfied: Adding another shell                        |
 | Shell:  2 Multiplicity:  6                                                 |
 | b-vector 1 :        0.113957    0.197379    0.000000      (Ang^-1)         |
 | b-vector 2 :        0.113957   -0.197379    0.000000      (Ang^-1)         |
 | b-vector 3 :        0.227913   -0.000000    0.000000      (Ang^-1)         |
 | b-vector 4 :       -0.227913    0.000000    0.000000      (Ang^-1)         |
 | b-vector 5 :       -0.113957    0.197379    0.000000      (Ang^-1)         |
 | b-vector 6 :       -0.113957   -0.197379    0.000000      (Ang^-1)         |
 | SVD found small singular value, Rejecting this shell and trying the next   |
 | Shell:  3 Multiplicity:  6                                                 |
 | b-vector 1 :        0.000000    0.263171    0.000000      (Ang^-1)         |
 | b-vector 2 :        0.227913    0.131586    0.000000      (Ang^-1)         |
 | b-vector 3 :        0.000000   -0.263171    0.000000      (Ang^-1)         |
 | b-vector 4 :        0.227913   -0.131586    0.000000      (Ang^-1)         |
 | b-vector 5 :       -0.227913   -0.131586    0.000000      (Ang^-1)         |
 | b-vector 6 :       -0.227913    0.131586    0.000000      (Ang^-1)         |
 | This shell is linearly dependent on existing shells: Trying next shell     |
 | Shell:  4 Multiplicity:  2                                                 |
 | b-vector 1 :        0.000000    0.000000    0.265883      (Ang^-1)         |
 | b-vector 2 :        0.000000    0.000000   -0.265883      (Ang^-1)         |
 | Shell:  1 w_b   19.2513662      (Ang^2)                                    |
 | Shell:  2 w_b    7.0727819      (Ang^2)                                    |
 | The following shells are used:   1,  4                                     |
 +----------------------------------------------------------------------------+
 |                        Shell   # Nearest-Neighbours                        |
 |                        -----   --------------------                        |
 |                          1               6                                 |
 |                          4               2                                 |
 +----------------------------------------------------------------------------+
 | Completeness relation is fully satisfied [Eq. (B1), PRB 56, 12847 (1997)]  |
 +----------------------------------------------------------------------------+
 |                  b_k Vectors (Ang^-1) and Weights (Ang^2)                  |
 |                  ----------------------------------------                  |
 |            No.         b_k(x)      b_k(y)      b_k(z)        w_b           |
 |            ---        --------------------------------     --------        |
 |             1         0.000000    0.131586    0.000000    19.251366        |
 |             2         0.113957    0.065793    0.000000    19.251366        |
 |             3         0.000000   -0.131586    0.000000    19.251366        |
 |             4         0.113957   -0.065793    0.000000    19.251366        |
 |             5        -0.113957   -0.065793    0.000000    19.251366        |
 |             6        -0.113957    0.065793    0.000000    19.251366        |
 |             7         0.000000    0.000000    0.265883     7.072782        |
 |             8         0.000000    0.000000   -0.265883     7.072782        |
 +----------------------------------------------------------------------------+
 |                           b_k Directions (Ang^-1)                          |
 |                           -----------------------                          |
 |            No.           x           y           z                         |
 |            ---        --------------------------------                     |
 |             1         0.000000    0.131586    0.000000                     |
 |             2         0.113957    0.065793    0.000000                     |
 |             3         0.113957   -0.065793    0.000000                     |
 |             4         0.000000    0.000000    0.265883                     |
 +----------------------------------------------------------------------------+
  
 Time to get kmesh              0.032 (sec)
 *============================================================================*
 |                              MEMORY ESTIMATE                               |
 |         Maximum RAM allocated during each phase of the calculation         |
 *============================================================================*
 |                        Disentanglement          550.06 Mb                  |
 |                            Wannierise:          183.41 Mb                  |
 |                                                                            |
 |   N.B. by setting optimisation=0 memory usage will be reduced to:          |
 |                        Disentanglement          550.06 Mb                  |
 |                            Wannierise:          119.42 Mb                  |
 |   However, this will result in more i/o and slow down the calculation      |
 |                          plot_wannier:          183.41 Mb                  |
 *----------------------------------------------------------------------------*
  
 Starting a new Wannier90 calculation ...


 Reading overlaps from 1Fe_initialconf.down.mmn    :  Created on 11Jul2023 at 20: 9:20

 Reading projections from 1Fe_initialconf.down.amn :  Created on 11Jul2023 at 19:50:50

 Time to read overlaps         63.909 (sec)

 *------------------------------- DISENTANGLE --------------------------------*
 +----------------------------------------------------------------------------+
 |                              Energy  Windows                               |
 |                              ---------------                               |
 |                   Outer:  -30.00000  to   30.00000  (eV)                   |
 |                   Inner:   -6.00000  to    1.50000  (eV)                   |
 +----------------------------------------------------------------------------+
 |                        K-points with Frozen States                         |
 |                        ---------------------------                         |
 |     1     2     3     4     5     6     7     8     9    10    11    12    |
 |    13    14    15    16                                                    |
 +----------------------------------------------------------------------------+
   Number of target bands to extract:  181
 +----------------------------------------------------------------------------+
 |                                  Windows                                   |
 |                                  -------                                   |
 |               K-point      Ndimwin     Ndimfroz    Nfirstwin               |
 |               ----------------------------------------------               |
 |                   1          382          121          69                  |
 |                   2          382          122          69                  |
 |                   3          382          127          69                  |
 |                   4          382          122          69                  |
 |                   5          382          122          69                  |
 |                   6          382          126          69                  |
 |                   7          382          126          69                  |
 |                   8          382          122          69                  |
 |                   9          382          127          69                  |
 |                  10          382          126          69                  |
 |                  11          382          127          69                  |
 |                  12          382          126          69                  |
 |                  13          382          122          69                  |
 |                  14          382          122          69                  |
 |                  15          382          126          69                  |
 |                  16          382          126          69                  |
 +----------------------------------------------------------------------------+

                   Unitarised projection of Wannier functions                  
                   ------------------------------------------                  
   A_mn = <psi_m|g_n> --> S = A.A^+ --> U = S^-1/2.A
   In dis_project... done
   Using an inner window (linner = T)
   In dis_proj_froz...
 K-point   1 ndimwin: 382 we want the 60 leading eigenvector(s) of QPQ
  lambda(  1)= -0.000000000000
  lambda(  2)= -0.000000000000
  lambda(  3)= -0.000000000000
  lambda(  4)= -0.000000000000
  lambda(  5)= -0.000000000000
  lambda(  6)= -0.000000000000
  lambda(  7)= -0.000000000000
  lambda(  8)= -0.000000000000
  lambda(  9)= -0.000000000000
  lambda( 10)= -0.000000000000
  lambda( 11)= -0.000000000000
  lambda( 12)= -0.000000000000
  lambda( 13)= -0.000000000000
  lambda( 14)= -0.000000000000
  lambda( 15)= -0.000000000000
  lambda( 16)= -0.000000000000
  lambda( 17)= -0.000000000000
  lambda( 18)= -0.000000000000
  lambda( 19)= -0.000000000000
  lambda( 20)= -0.000000000000
  lambda( 21)= -0.000000000000
  lambda( 22)= -0.000000000000
  lambda( 23)= -0.000000000000
  lambda( 24)= -0.000000000000
  lambda( 25)= -0.000000000000
  lambda( 26)= -0.000000000000
  lambda( 27)= -0.000000000000
  lambda( 28)= -0.000000000000
  lambda( 29)= -0.000000000000
  lambda( 30)= -0.000000000000
  lambda( 31)= -0.000000000000
  lambda( 32)= -0.000000000000
  lambda( 33)= -0.000000000000
  lambda( 34)= -0.000000000000
  lambda( 35)= -0.000000000000
  lambda( 36)= -0.000000000000
  lambda( 37)= -0.000000000000
  lambda( 38)= -0.000000000000
  lambda( 39)= -0.000000000000
  lambda( 40)= -0.000000000000
  lambda( 41)= -0.000000000000
  lambda( 42)= -0.000000000000
  lambda( 43)= -0.000000000000
  lambda( 44)= -0.000000000000
  lambda( 45)= -0.000000000000
  lambda( 46)= -0.000000000000
  lambda( 47)= -0.000000000000
  lambda( 48)= -0.000000000000
  lambda( 49)= -0.000000000000
  lambda( 50)= -0.000000000000
  lambda( 51)= -0.000000000000
  lambda( 52)= -0.000000000000
  lambda( 53)= -0.000000000000
  lambda( 54)= -0.000000000000
  lambda( 55)= -0.000000000000
  lambda( 56)= -0.000000000000
  lambda( 57)= -0.000000000000
  lambda( 58)= -0.000000000000
  lambda( 59)= -0.000000000000
  lambda( 60)= -0.000000000000
  lambda( 61)= -0.000000000000
  lambda( 62)= -0.000000000000
  lambda( 63)= -0.000000000000
  lambda( 64)= -0.000000000000
  lambda( 65)= -0.000000000000
  lambda( 66)= -0.000000000000
  lambda( 67)= -0.000000000000
  lambda( 68)= -0.000000000000
  lambda( 69)= -0.000000000000
  lambda( 70)= -0.000000000000
  lambda( 71)= -0.000000000000
  lambda( 72)= -0.000000000000
  lambda( 73)= -0.000000000000
  lambda( 74)= -0.000000000000
  lambda( 75)= -0.000000000000
  lambda( 76)= -0.000000000000
  lambda( 77)= -0.000000000000
  lambda( 78)= -0.000000000000
  lambda( 79)= -0.000000000000
  lambda( 80)= -0.000000000000
  lambda( 81)= -0.000000000000
  lambda( 82)= -0.000000000000
  lambda( 83)= -0.000000000000
  lambda( 84)= -0.000000000000
  lambda( 85)= -0.000000000000
  lambda( 86)= -0.000000000000
  lambda( 87)= -0.000000000000
  lambda( 88)= -0.000000000000
  lambda( 89)= -0.000000000000
  lambda( 90)= -0.000000000000
  lambda( 91)= -0.000000000000
  lambda( 92)= -0.000000000000
  lambda( 93)= -0.000000000000
  lambda( 94)= -0.000000000000
  lambda( 95)= -0.000000000000
  lambda( 96)= -0.000000000000
  lambda( 97)= -0.000000000000
  lambda( 98)= -0.000000000000
  lambda( 99)= -0.000000000000
  lambda(100)= -0.000000000000
  lambda(101)=  0.000000000000
  lambda(102)=  0.000000000000
  lambda(103)=  0.000000000000
  lambda(104)=  0.000000000000
  lambda(105)=  0.000000000000
  lambda(106)=  0.000000000000
  lambda(107)=  0.000000000000
  lambda(108)=  0.000000000000
  lambda(109)=  0.000000000000
  lambda(110)=  0.000000000000
  lambda(111)=  0.000000000000
  lambda(112)=  0.000000000000
  lambda(113)=  0.000000000000
  lambda(114)=  0.000000000000
  lambda(115)=  0.000000000000
  lambda(116)=  0.000000000000
  lambda(117)=  0.000000000000
  lambda(118)=  0.000000000000
  lambda(119)=  0.000000000000
  lambda(120)=  0.000000000000
  lambda(121)=  0.000000000000
  lambda(122)=  0.000000000000
  lambda(123)=  0.000000000000
  lambda(124)=  0.000000000000
  lambda(125)=  0.000000000000
  lambda(126)=  0.000000000000
  lambda(127)=  0.000000000000
  lambda(128)=  0.000000000000
  lambda(129)=  0.000000000000
  lambda(130)=  0.000000000000
  lambda(131)=  0.000000000000
  lambda(132)=  0.000000000000
  lambda(133)=  0.000000000000
  lambda(134)=  0.000000000000
  lambda(135)=  0.000000000000
  lambda(136)=  0.000000000000
  lambda(137)=  0.000000000000
  lambda(138)=  0.000000000000
  lambda(139)=  0.000000000000
  lambda(140)=  0.000000000000
  lambda(141)=  0.000000000000
  lambda(142)=  0.000000000000
  lambda(143)=  0.000000000000
  lambda(144)=  0.000000000000
  lambda(145)=  0.000000000000
  lambda(146)=  0.000000000000
  lambda(147)=  0.000000000000
  lambda(148)=  0.000000000000
  lambda(149)=  0.000000000000
  lambda(150)=  0.000000000000
  lambda(151)=  0.000000000000
  lambda(152)=  0.000000000000
  lambda(153)=  0.000000000000
  lambda(154)=  0.000000000000
  lambda(155)=  0.000000000000
  lambda(156)=  0.000000000000
  lambda(157)=  0.000000000000
  lambda(158)=  0.000000000000
  lambda(159)=  0.000000000000
  lambda(160)=  0.000000000000
  lambda(161)=  0.000000000000
  lambda(162)=  0.000000000000
  lambda(163)=  0.000000000000
  lambda(164)=  0.000000000000
  lambda(165)=  0.000000000000
  lambda(166)=  0.000000000000
  lambda(167)=  0.000000000000
  lambda(168)=  0.000000000000
  lambda(169)=  0.000000000000
  lambda(170)=  0.000000000000
  lambda(171)=  0.000000000000
  lambda(172)=  0.000000000000
  lambda(173)=  0.000000000000
  lambda(174)=  0.000000000000
  lambda(175)=  0.000000000000
  lambda(176)=  0.000000000000
  lambda(177)=  0.000000000000
  lambda(178)=  0.000000000000
  lambda(179)=  0.000000000000
  lambda(180)=  0.000000000000
  lambda(181)=  0.000000000000
  lambda(182)=  0.000000000000
  lambda(183)=  0.000000000000
  lambda(184)=  0.000000000000
  lambda(185)=  0.000000000000
  lambda(186)=  0.000000000000
  lambda(187)=  0.000000000000
  lambda(188)=  0.000000000000
  lambda(189)=  0.000000000000
  lambda(190)=  0.000000000000
  lambda(191)=  0.000000000000
  lambda(192)=  0.000000000000
  lambda(193)=  0.000000000000
  lambda(194)=  0.000000000000
  lambda(195)=  0.000000000000
  lambda(196)=  0.000000000000
  lambda(197)=  0.000000000000
  lambda(198)=  0.000000000000
  lambda(199)=  0.000000000000
  lambda(200)=  0.000000000000
  lambda(201)=  0.000000000000
  lambda(202)=  0.000000000051
  lambda(203)=  0.000000000097
  lambda(204)=  0.000000000361
  lambda(205)=  0.000000006743
  lambda(206)=  0.000000374370
  lambda(207)=  0.000003481918
  lambda(208)=  0.000003511559
  lambda(209)=  0.000010947695
  lambda(210)=  0.000011015633
  lambda(211)=  0.000011738120
  lambda(212)=  0.000011918974
  lambda(213)=  0.000018766750
  lambda(214)=  0.000018771583
  lambda(215)=  0.000024415165
  lambda(216)=  0.000048247461
  lambda(217)=  0.000048493673
  lambda(218)=  0.000063733654
  lambda(219)=  0.000064344700
  lambda(220)=  0.000147251479
  lambda(221)=  0.000147468830
  lambda(222)=  0.000239318426
  lambda(223)=  0.000239802555
  lambda(224)=  0.000321375269
  lambda(225)=  0.000397652587
  lambda(226)=  0.000397677795
  lambda(227)=  0.000401232421
  lambda(228)=  0.000460515768
  lambda(229)=  0.000533676459
  lambda(230)=  0.000533807567
  lambda(231)=  0.000776519993
  lambda(232)=  0.000825045062
  lambda(233)=  0.000825699224
  lambda(234)=  0.001696819481
  lambda(235)=  0.001698720045
  lambda(236)=  0.001717438844
  lambda(237)=  0.001719069623
  lambda(238)=  0.002046225529
  lambda(239)=  0.002233935836
  lambda(240)=  0.002236175635
  lambda(241)=  0.002623664485
  lambda(242)=  0.004384274117
  lambda(243)=  0.004386381861
  lambda(244)=  0.004931918632
  lambda(245)=  0.006704575496
  lambda(246)=  0.009358105048
  lambda(247)=  0.009716905041
  lambda(248)=  0.009719110199
  lambda(249)=  0.010954265983
  lambda(250)=  0.010954365051
  lambda(251)=  0.014605002039
  lambda(252)=  0.018230060914
  lambda(253)=  0.018230417793
  lambda(254)=  0.020248596683
  lambda(255)=  0.020251974041
  lambda(256)=  0.020301705325
  lambda(257)=  0.020632236179
  lambda(258)=  0.022964195850
  lambda(259)=  0.022964756336
  lambda(260)=  0.023779973512
  lambda(261)=  0.024186940140
  lambda(262)=  0.025059615609
  lambda(263)=  0.025064129880
  lambda(264)=  0.027066420104
  lambda(265)=  0.027158926968
  lambda(266)=  0.031422613816
  lambda(267)=  0.035372588065
  lambda(268)=  0.035380162095
  lambda(269)=  0.039092009367
  lambda(270)=  0.039092229812
  lambda(271)=  0.039282852487
  lambda(272)=  0.041276953970
  lambda(273)=  0.041278708904
  lambda(274)=  0.042613398049
  lambda(275)=  0.043320837912
  lambda(276)=  0.043325036750
  lambda(277)=  0.048822017150
  lambda(278)=  0.058410564184
  lambda(279)=  0.058412367551
  lambda(280)=  0.058772855612
  lambda(281)=  0.058776124999
  lambda(282)=  0.059927455034
  lambda(283)=  0.059931378491
  lambda(284)=  0.060527032864
  lambda(285)=  0.061527189815
  lambda(286)=  0.063032725862
  lambda(287)=  0.063658161729
  lambda(288)=  0.063660739699
  lambda(289)=  0.065310654491
  lambda(290)=  0.066233565842
  lambda(291)=  0.066236152026
  lambda(292)=  0.068598793308
  lambda(293)=  0.069942807985
  lambda(294)=  0.070277708409
  lambda(295)=  0.070278756220
  lambda(296)=  0.076678501103
  lambda(297)=  0.076680603232
  lambda(298)=  0.105907530863
  lambda(299)=  0.115223373895
  lambda(300)=  0.115228060662
  lambda(301)=  0.120319087678
  lambda(302)=  0.123783832951
  lambda(303)=  0.123787998906
  lambda(304)=  0.123906149426
  lambda(305)=  0.126904042042
  lambda(306)=  0.129420023400
  lambda(307)=  0.129434505596
  lambda(308)=  0.129945759647
  lambda(309)=  0.138109756351
  lambda(310)=  0.138119584633
  lambda(311)=  0.139110178288
  lambda(312)=  0.147057679192
  lambda(313)=  0.147063206733
  lambda(314)=  0.163634941031
  lambda(315)=  0.163638203046
  lambda(316)=  0.165893732541
  lambda(317)=  0.171550561517
  lambda(318)=  0.171559028855
  lambda(319)=  0.173600889033
  lambda(320)=  0.173603259842
  lambda(321)=  0.175319547853
  lambda(322)=  0.766720292854
  lambda(323)=  1.000000000000
  lambda(324)=  1.000000000000
  lambda(325)=  1.000000000000
  lambda(326)=  1.000000000000
  lambda(327)=  1.000000000000
  lambda(328)=  1.000000000000
  lambda(329)=  1.000000000000
  lambda(330)=  1.000000000000
  lambda(331)=  1.000000000000
  lambda(332)=  1.000000000000
  lambda(333)=  1.000000000000
  lambda(334)=  1.000000000000
  lambda(335)=  1.000000000000
  lambda(336)=  1.000000000000
  lambda(337)=  1.000000000000
  lambda(338)=  1.000000000000
  lambda(339)=  1.000000000000
  lambda(340)=  1.000000000000
  lambda(341)=  1.000000000000
  lambda(342)=  1.000000000000
  lambda(343)=  1.000000000000
  lambda(344)=  1.000000000000
  lambda(345)=  1.000000000000
  lambda(346)=  1.000000000000
  lambda(347)=  1.000000000000
  lambda(348)=  1.000000000000
  lambda(349)=  1.000000000000
  lambda(350)=  1.000000000000
  lambda(351)=  1.000000000000
  lambda(352)=  1.000000000000
  lambda(353)=  1.000000000000
  lambda(354)=  1.000000000000
  lambda(355)=  1.000000000000
  lambda(356)=  1.000000000000
  lambda(357)=  1.000000000000
  lambda(358)=  1.000000000000
  lambda(359)=  1.000000000000
  lambda(360)=  1.000000000000
  lambda(361)=  1.000000000000
  lambda(362)=  1.000000000000
  lambda(363)=  1.000000000000
  lambda(364)=  1.000000000000
  lambda(365)=  1.000000000000
  lambda(366)=  1.000000000000
  lambda(367)=  1.000000000000
  lambda(368)=  1.000000000000
  lambda(369)=  1.000000000000
  lambda(370)=  1.000000000000
  lambda(371)=  1.000000000000
  lambda(372)=  1.000000000000
  lambda(373)=  1.000000000000
  lambda(374)=  1.000000000000
  lambda(375)=  1.000000000000
  lambda(376)=  1.000000000000
  lambda(377)=  1.000000000000
  lambda(378)=  1.000000000000
  lambda(379)=  1.000000000000
  lambda(380)=  1.000000000000
  lambda(381)=  1.000000000000
  lambda(382)=  1.000000000000

 K-point   2 ndimwin: 382 we want the 59 leading eigenvector(s) of QPQ
  lambda(  1)= -0.000000000000
  lambda(  2)= -0.000000000000
  lambda(  3)= -0.000000000000
  lambda(  4)= -0.000000000000
  lambda(  5)= -0.000000000000
  lambda(  6)= -0.000000000000
  lambda(  7)= -0.000000000000
  lambda(  8)= -0.000000000000
  lambda(  9)= -0.000000000000
  lambda( 10)= -0.000000000000
  lambda( 11)= -0.000000000000
  lambda( 12)= -0.000000000000
  lambda( 13)= -0.000000000000
  lambda( 14)= -0.000000000000
  lambda( 15)= -0.000000000000
  lambda( 16)= -0.000000000000
  lambda( 17)= -0.000000000000
  lambda( 18)= -0.000000000000
  lambda( 19)= -0.000000000000
  lambda( 20)= -0.000000000000
  lambda( 21)= -0.000000000000
  lambda( 22)= -0.000000000000
  lambda( 23)= -0.000000000000
  lambda( 24)= -0.000000000000
  lambda( 25)= -0.000000000000
  lambda( 26)= -0.000000000000
  lambda( 27)= -0.000000000000
  lambda( 28)= -0.000000000000
  lambda( 29)= -0.000000000000
  lambda( 30)= -0.000000000000
  lambda( 31)= -0.000000000000
  lambda( 32)= -0.000000000000
  lambda( 33)= -0.000000000000
  lambda( 34)= -0.000000000000
  lambda( 35)= -0.000000000000
  lambda( 36)= -0.000000000000
  lambda( 37)= -0.000000000000
  lambda( 38)= -0.000000000000
  lambda( 39)= -0.000000000000
  lambda( 40)= -0.000000000000
  lambda( 41)= -0.000000000000
  lambda( 42)= -0.000000000000
  lambda( 43)= -0.000000000000
  lambda( 44)= -0.000000000000
  lambda( 45)= -0.000000000000
  lambda( 46)= -0.000000000000
  lambda( 47)= -0.000000000000
  lambda( 48)= -0.000000000000
  lambda( 49)= -0.000000000000
  lambda( 50)= -0.000000000000
  lambda( 51)= -0.000000000000
  lambda( 52)= -0.000000000000
  lambda( 53)= -0.000000000000
  lambda( 54)= -0.000000000000
  lambda( 55)= -0.000000000000
  lambda( 56)= -0.000000000000
  lambda( 57)= -0.000000000000
  lambda( 58)= -0.000000000000
  lambda( 59)= -0.000000000000
  lambda( 60)= -0.000000000000
  lambda( 61)= -0.000000000000
  lambda( 62)= -0.000000000000
  lambda( 63)= -0.000000000000
  lambda( 64)= -0.000000000000
  lambda( 65)= -0.000000000000
  lambda( 66)= -0.000000000000
  lambda( 67)= -0.000000000000
  lambda( 68)= -0.000000000000
  lambda( 69)= -0.000000000000
  lambda( 70)= -0.000000000000
  lambda( 71)= -0.000000000000
  lambda( 72)= -0.000000000000
  lambda( 73)= -0.000000000000
  lambda( 74)= -0.000000000000
  lambda( 75)= -0.000000000000
  lambda( 76)= -0.000000000000
  lambda( 77)= -0.000000000000
  lambda( 78)= -0.000000000000
  lambda( 79)= -0.000000000000
  lambda( 80)= -0.000000000000
  lambda( 81)= -0.000000000000
  lambda( 82)= -0.000000000000
  lambda( 83)= -0.000000000000
  lambda( 84)= -0.000000000000
  lambda( 85)= -0.000000000000
  lambda( 86)= -0.000000000000
  lambda( 87)= -0.000000000000
  lambda( 88)= -0.000000000000
  lambda( 89)= -0.000000000000
  lambda( 90)= -0.000000000000
  lambda( 91)= -0.000000000000
  lambda( 92)= -0.000000000000
  lambda( 93)= -0.000000000000
  lambda( 94)= -0.000000000000
  lambda( 95)= -0.000000000000
  lambda( 96)= -0.000000000000
  lambda( 97)= -0.000000000000
  lambda( 98)= -0.000000000000
  lambda( 99)=  0.000000000000
  lambda(100)=  0.000000000000
  lambda(101)=  0.000000000000
  lambda(102)=  0.000000000000
  lambda(103)=  0.000000000000
  lambda(104)=  0.000000000000
  lambda(105)=  0.000000000000
  lambda(106)=  0.000000000000
  lambda(107)=  0.000000000000
  lambda(108)=  0.000000000000
  lambda(109)=  0.000000000000
  lambda(110)=  0.000000000000
  lambda(111)=  0.000000000000
  lambda(112)=  0.000000000000
  lambda(113)=  0.000000000000
  lambda(114)=  0.000000000000
  lambda(115)=  0.000000000000
  lambda(116)=  0.000000000000
  lambda(117)=  0.000000000000
  lambda(118)=  0.000000000000
  lambda(119)=  0.000000000000
  lambda(120)=  0.000000000000
  lambda(121)=  0.000000000000
  lambda(122)=  0.000000000000
  lambda(123)=  0.000000000000
  lambda(124)=  0.000000000000
  lambda(125)=  0.000000000000
  lambda(126)=  0.000000000000
  lambda(127)=  0.000000000000
  lambda(128)=  0.000000000000
  lambda(129)=  0.000000000000
  lambda(130)=  0.000000000000
  lambda(131)=  0.000000000000
  lambda(132)=  0.000000000000
  lambda(133)=  0.000000000000
  lambda(134)=  0.000000000000
  lambda(135)=  0.000000000000
  lambda(136)=  0.000000000000
  lambda(137)=  0.000000000000
  lambda(138)=  0.000000000000
  lambda(139)=  0.000000000000
  lambda(140)=  0.000000000000
  lambda(141)=  0.000000000000
  lambda(142)=  0.000000000000
  lambda(143)=  0.000000000000
  lambda(144)=  0.000000000000
  lambda(145)=  0.000000000000
  lambda(146)=  0.000000000000
  lambda(147)=  0.000000000000
  lambda(148)=  0.000000000000
  lambda(149)=  0.000000000000
  lambda(150)=  0.000000000000
  lambda(151)=  0.000000000000
  lambda(152)=  0.000000000000
  lambda(153)=  0.000000000000
  lambda(154)=  0.000000000000
  lambda(155)=  0.000000000000
  lambda(156)=  0.000000000000
  lambda(157)=  0.000000000000
  lambda(158)=  0.000000000000
  lambda(159)=  0.000000000000
  lambda(160)=  0.000000000000
  lambda(161)=  0.000000000000
  lambda(162)=  0.000000000000
  lambda(163)=  0.000000000000
  lambda(164)=  0.000000000000
  lambda(165)=  0.000000000000
  lambda(166)=  0.000000000000
  lambda(167)=  0.000000000000
  lambda(168)=  0.000000000000
  lambda(169)=  0.000000000000
  lambda(170)=  0.000000000000
  lambda(171)=  0.000000000000
  lambda(172)=  0.000000000000
  lambda(173)=  0.000000000000
  lambda(174)=  0.000000000000
  lambda(175)=  0.000000000000
  lambda(176)=  0.000000000000
  lambda(177)=  0.000000000000
  lambda(178)=  0.000000000000
  lambda(179)=  0.000000000000
  lambda(180)=  0.000000000000
  lambda(181)=  0.000000000000
  lambda(182)=  0.000000000000
  lambda(183)=  0.000000000000
  lambda(184)=  0.000000000000
  lambda(185)=  0.000000000000
  lambda(186)=  0.000000000000
  lambda(187)=  0.000000000000
  lambda(188)=  0.000000000000
  lambda(189)=  0.000000000000
  lambda(190)=  0.000000000000
  lambda(191)=  0.000000000000
  lambda(192)=  0.000000000000
  lambda(193)=  0.000000000000
  lambda(194)=  0.000000000000
  lambda(195)=  0.000000000000
  lambda(196)=  0.000000000000
  lambda(197)=  0.000000000000
  lambda(198)=  0.000000000000
  lambda(199)=  0.000000000000
  lambda(200)=  0.000000000000
  lambda(201)=  0.000000000000
  lambda(202)=  0.000000356005
  lambda(203)=  0.000001116977
  lambda(204)=  0.000003565716
  lambda(205)=  0.000005779556
  lambda(206)=  0.000008899712
  lambda(207)=  0.000013187485
  lambda(208)=  0.000028730029
  lambda(209)=  0.000079661563
  lambda(210)=  0.000176049427
  lambda(211)=  0.000183039281
  lambda(212)=  0.000236332373
  lambda(213)=  0.000281369494
  lambda(214)=  0.000365954838
  lambda(215)=  0.000462575521
  lambda(216)=  0.000601851050
  lambda(217)=  0.000621357359
  lambda(218)=  0.000637638007
  lambda(219)=  0.000701901478
  lambda(220)=  0.000806670507
  lambda(221)=  0.000855617979
  lambda(222)=  0.000966187463
  lambda(223)=  0.001084315900
  lambda(224)=  0.001280084071
  lambda(225)=  0.001296880551
  lambda(226)=  0.001381742853
  lambda(227)=  0.001575622215
  lambda(228)=  0.001801321494
  lambda(229)=  0.002248304557
  lambda(230)=  0.002475403580
  lambda(231)=  0.002569553057
  lambda(232)=  0.003004170780
  lambda(233)=  0.003096352996
  lambda(234)=  0.003125047450
  lambda(235)=  0.003237666254
  lambda(236)=  0.003474618707
  lambda(237)=  0.003895085259
  lambda(238)=  0.004047561128
  lambda(239)=  0.004181804194
  lambda(240)=  0.004335564943
  lambda(241)=  0.004363050356
  lambda(242)=  0.005093771258
  lambda(243)=  0.005384531160
  lambda(244)=  0.006237898555
  lambda(245)=  0.007278969683
  lambda(246)=  0.007535155013
  lambda(247)=  0.009295984728
  lambda(248)=  0.010559478184
  lambda(249)=  0.012125566781
  lambda(250)=  0.012932637159
  lambda(251)=  0.015500370825
  lambda(252)=  0.016113710193
  lambda(253)=  0.016285611766
  lambda(254)=  0.017523273880
  lambda(255)=  0.018804790290
  lambda(256)=  0.019357975406
  lambda(257)=  0.020164855668
  lambda(258)=  0.020461176302
  lambda(259)=  0.020513488751
  lambda(260)=  0.020880875533
  lambda(261)=  0.021840925752
  lambda(262)=  0.021894433878
  lambda(263)=  0.023000301705
  lambda(264)=  0.025668783808
  lambda(265)=  0.027621061515
  lambda(266)=  0.029942390940
  lambda(267)=  0.033291342672
  lambda(268)=  0.033558059359
  lambda(269)=  0.034531318019
  lambda(270)=  0.035600748039
  lambda(271)=  0.039196050062
  lambda(272)=  0.039908438952
  lambda(273)=  0.043716528080
  lambda(274)=  0.045150190934
  lambda(275)=  0.046017075469
  lambda(276)=  0.048911507665
  lambda(277)=  0.050882541214
  lambda(278)=  0.053080818017
  lambda(279)=  0.054734897969
  lambda(280)=  0.054909795831
  lambda(281)=  0.057371954161
  lambda(282)=  0.059457128504
  lambda(283)=  0.059478871908
  lambda(284)=  0.059887387785
  lambda(285)=  0.059915944136
  lambda(286)=  0.061180479568
  lambda(287)=  0.062334504021
  lambda(288)=  0.062752152733
  lambda(289)=  0.062785422163
  lambda(290)=  0.063168027904
  lambda(291)=  0.063829544618
  lambda(292)=  0.064055561530
  lambda(293)=  0.065380039323
  lambda(294)=  0.065978793838
  lambda(295)=  0.071175516040
  lambda(296)=  0.082969992537
  lambda(297)=  0.084019249957
  lambda(298)=  0.088794271491
  lambda(299)=  0.097026462217
  lambda(300)=  0.103235803699
  lambda(301)=  0.109848404272
  lambda(302)=  0.110118990913
  lambda(303)=  0.113747941142
  lambda(304)=  0.115048816745
  lambda(305)=  0.120322686733
  lambda(306)=  0.124034695390
  lambda(307)=  0.126346799347
  lambda(308)=  0.132218778150
  lambda(309)=  0.136524611495
  lambda(310)=  0.142586848050
  lambda(311)=  0.149266081445
  lambda(312)=  0.149339652845
  lambda(313)=  0.153877113064
  lambda(314)=  0.161558392561
  lambda(315)=  0.162702960275
  lambda(316)=  0.168013639497
  lambda(317)=  0.169120019193
  lambda(318)=  0.171895841934
  lambda(319)=  0.176186102447
  lambda(320)=  0.177497918884
  lambda(321)=  0.180210993476
  lambda(322)=  0.188153067250
  lambda(323)=  0.748020197154
  lambda(324)=  1.000000000000
  lambda(325)=  1.000000000000
  lambda(326)=  1.000000000000
  lambda(327)=  1.000000000000
  lambda(328)=  1.000000000000
  lambda(329)=  1.000000000000
  lambda(330)=  1.000000000000
  lambda(331)=  1.000000000000
  lambda(332)=  1.000000000000
  lambda(333)=  1.000000000000
  lambda(334)=  1.000000000000
  lambda(335)=  1.000000000000
  lambda(336)=  1.000000000000
  lambda(337)=  1.000000000000
  lambda(338)=  1.000000000000
  lambda(339)=  1.000000000000
  lambda(340)=  1.000000000000
  lambda(341)=  1.000000000000
  lambda(342)=  1.000000000000
  lambda(343)=  1.000000000000
  lambda(344)=  1.000000000000
  lambda(345)=  1.000000000000
  lambda(346)=  1.000000000000
  lambda(347)=  1.000000000000
  lambda(348)=  1.000000000000
  lambda(349)=  1.000000000000
  lambda(350)=  1.000000000000
  lambda(351)=  1.000000000000
  lambda(352)=  1.000000000000
  lambda(353)=  1.000000000000
  lambda(354)=  1.000000000000
  lambda(355)=  1.000000000000
  lambda(356)=  1.000000000000
  lambda(357)=  1.000000000000
  lambda(358)=  1.000000000000
  lambda(359)=  1.000000000000
  lambda(360)=  1.000000000000
  lambda(361)=  1.000000000000
  lambda(362)=  1.000000000000
  lambda(363)=  1.000000000000
  lambda(364)=  1.000000000000
  lambda(365)=  1.000000000000
  lambda(366)=  1.000000000000
  lambda(367)=  1.000000000000
  lambda(368)=  1.000000000000
  lambda(369)=  1.000000000000
  lambda(370)=  1.000000000000
  lambda(371)=  1.000000000000
  lambda(372)=  1.000000000000
  lambda(373)=  1.000000000000
  lambda(374)=  1.000000000000
  lambda(375)=  1.000000000000
  lambda(376)=  1.000000000000
  lambda(377)=  1.000000000000
  lambda(378)=  1.000000000000
  lambda(379)=  1.000000000000
  lambda(380)=  1.000000000000
  lambda(381)=  1.000000000000
  lambda(382)=  1.000000000000

 K-point   3 ndimwin: 382 we want the 54 leading eigenvector(s) of QPQ
  lambda(  1)= -0.000000000000
  lambda(  2)= -0.000000000000
  lambda(  3)= -0.000000000000
  lambda(  4)= -0.000000000000
  lambda(  5)= -0.000000000000
  lambda(  6)= -0.000000000000
  lambda(  7)= -0.000000000000
  lambda(  8)= -0.000000000000
  lambda(  9)= -0.000000000000
  lambda( 10)= -0.000000000000
  lambda( 11)= -0.000000000000
  lambda( 12)= -0.000000000000
  lambda( 13)= -0.000000000000
  lambda( 14)= -0.000000000000
  lambda( 15)= -0.000000000000
  lambda( 16)= -0.000000000000
  lambda( 17)= -0.000000000000
  lambda( 18)= -0.000000000000
  lambda( 19)= -0.000000000000
  lambda( 20)= -0.000000000000
  lambda( 21)= -0.000000000000
  lambda( 22)= -0.000000000000
  lambda( 23)= -0.000000000000
  lambda( 24)= -0.000000000000
  lambda( 25)= -0.000000000000
  lambda( 26)= -0.000000000000
  lambda( 27)= -0.000000000000
  lambda( 28)= -0.000000000000
  lambda( 29)= -0.000000000000
  lambda( 30)= -0.000000000000
  lambda( 31)= -0.000000000000
  lambda( 32)= -0.000000000000
  lambda( 33)= -0.000000000000
  lambda( 34)= -0.000000000000
  lambda( 35)= -0.000000000000
  lambda( 36)= -0.000000000000
  lambda( 37)= -0.000000000000
  lambda( 38)= -0.000000000000
  lambda( 39)= -0.000000000000
  lambda( 40)= -0.000000000000
  lambda( 41)= -0.000000000000
  lambda( 42)= -0.000000000000
  lambda( 43)= -0.000000000000
  lambda( 44)= -0.000000000000
  lambda( 45)= -0.000000000000
  lambda( 46)= -0.000000000000
  lambda( 47)= -0.000000000000
  lambda( 48)= -0.000000000000
  lambda( 49)= -0.000000000000
  lambda( 50)= -0.000000000000
  lambda( 51)= -0.000000000000
  lambda( 52)= -0.000000000000
  lambda( 53)= -0.000000000000
  lambda( 54)= -0.000000000000
  lambda( 55)= -0.000000000000
  lambda( 56)= -0.000000000000
  lambda( 57)= -0.000000000000
  lambda( 58)= -0.000000000000
  lambda( 59)= -0.000000000000
  lambda( 60)= -0.000000000000
  lambda( 61)= -0.000000000000
  lambda( 62)= -0.000000000000
  lambda( 63)= -0.000000000000
  lambda( 64)= -0.000000000000
  lambda( 65)= -0.000000000000
  lambda( 66)= -0.000000000000
  lambda( 67)= -0.000000000000
  lambda( 68)= -0.000000000000
  lambda( 69)= -0.000000000000
  lambda( 70)= -0.000000000000
  lambda( 71)= -0.000000000000
  lambda( 72)= -0.000000000000
  lambda( 73)= -0.000000000000
  lambda( 74)= -0.000000000000
  lambda( 75)= -0.000000000000
  lambda( 76)= -0.000000000000
  lambda( 77)= -0.000000000000
  lambda( 78)= -0.000000000000
  lambda( 79)= -0.000000000000
  lambda( 80)= -0.000000000000
  lambda( 81)= -0.000000000000
  lambda( 82)= -0.000000000000
  lambda( 83)= -0.000000000000
  lambda( 84)= -0.000000000000
  lambda( 85)= -0.000000000000
  lambda( 86)= -0.000000000000
  lambda( 87)= -0.000000000000
  lambda( 88)= -0.000000000000
  lambda( 89)= -0.000000000000
  lambda( 90)= -0.000000000000
  lambda( 91)= -0.000000000000
  lambda( 92)= -0.000000000000
  lambda( 93)= -0.000000000000
  lambda( 94)= -0.000000000000
  lambda( 95)= -0.000000000000
  lambda( 96)= -0.000000000000
  lambda( 97)= -0.000000000000
  lambda( 98)= -0.000000000000
  lambda( 99)= -0.000000000000
  lambda(100)= -0.000000000000
  lambda(101)=  0.000000000000
  lambda(102)=  0.000000000000
  lambda(103)=  0.000000000000
  lambda(104)=  0.000000000000
  lambda(105)=  0.000000000000
  lambda(106)=  0.000000000000
  lambda(107)=  0.000000000000
  lambda(108)=  0.000000000000
  lambda(109)=  0.000000000000
  lambda(110)=  0.000000000000
  lambda(111)=  0.000000000000
  lambda(112)=  0.000000000000
  lambda(113)=  0.000000000000
  lambda(114)=  0.000000000000
  lambda(115)=  0.000000000000
  lambda(116)=  0.000000000000
  lambda(117)=  0.000000000000
  lambda(118)=  0.000000000000
  lambda(119)=  0.000000000000
  lambda(120)=  0.000000000000
  lambda(121)=  0.000000000000
  lambda(122)=  0.000000000000
  lambda(123)=  0.000000000000
  lambda(124)=  0.000000000000
  lambda(125)=  0.000000000000
  lambda(126)=  0.000000000000
  lambda(127)=  0.000000000000
  lambda(128)=  0.000000000000
  lambda(129)=  0.000000000000
  lambda(130)=  0.000000000000
  lambda(131)=  0.000000000000
  lambda(132)=  0.000000000000
  lambda(133)=  0.000000000000
  lambda(134)=  0.000000000000
  lambda(135)=  0.000000000000
  lambda(136)=  0.000000000000
  lambda(137)=  0.000000000000
  lambda(138)=  0.000000000000
  lambda(139)=  0.000000000000
  lambda(140)=  0.000000000000
  lambda(141)=  0.000000000000
  lambda(142)=  0.000000000000
  lambda(143)=  0.000000000000
  lambda(144)=  0.000000000000
  lambda(145)=  0.000000000000
  lambda(146)=  0.000000000000
  lambda(147)=  0.000000000000
  lambda(148)=  0.000000000000
  lambda(149)=  0.000000000000
  lambda(150)=  0.000000000000
  lambda(151)=  0.000000000000
  lambda(152)=  0.000000000000
  lambda(153)=  0.000000000000
  lambda(154)=  0.000000000000
  lambda(155)=  0.000000000000
  lambda(156)=  0.000000000000
  lambda(157)=  0.000000000000
  lambda(158)=  0.000000000000
  lambda(159)=  0.000000000000
  lambda(160)=  0.000000000000
  lambda(161)=  0.000000000000
  lambda(162)=  0.000000000000
  lambda(163)=  0.000000000000
  lambda(164)=  0.000000000000
  lambda(165)=  0.000000000000
  lambda(166)=  0.000000000000
  lambda(167)=  0.000000000000
  lambda(168)=  0.000000000000
  lambda(169)=  0.000000000000
  lambda(170)=  0.000000000000
  lambda(171)=  0.000000000000
  lambda(172)=  0.000000000000
  lambda(173)=  0.000000000000
  lambda(174)=  0.000000000000
  lambda(175)=  0.000000000000
  lambda(176)=  0.000000000000
  lambda(177)=  0.000000000000
  lambda(178)=  0.000000000000
  lambda(179)=  0.000000000000
  lambda(180)=  0.000000000000
  lambda(181)=  0.000000000000
  lambda(182)=  0.000000000000
  lambda(183)=  0.000000000000
  lambda(184)=  0.000000000000
  lambda(185)=  0.000000000000
  lambda(186)=  0.000000000000
  lambda(187)=  0.000000000000
  lambda(188)=  0.000000000000
  lambda(189)=  0.000000000000
  lambda(190)=  0.000000000000
  lambda(191)=  0.000000000000
  lambda(192)=  0.000000000000
  lambda(193)=  0.000000000000
  lambda(194)=  0.000000000000
  lambda(195)=  0.000000000000
  lambda(196)=  0.000000000000
  lambda(197)=  0.000000000000
  lambda(198)=  0.000000000000
  lambda(199)=  0.000000000000
  lambda(200)=  0.000000000000
  lambda(201)=  0.000000000000
  lambda(202)=  0.000000031179
  lambda(203)=  0.000000169685
  lambda(204)=  0.000001636766
  lambda(205)=  0.000003948599
  lambda(206)=  0.000006071973
  lambda(207)=  0.000008975923
  lambda(208)=  0.000032446170
  lambda(209)=  0.000070328326
  lambda(210)=  0.000130919693
  lambda(211)=  0.000229353673
  lambda(212)=  0.000230314495
  lambda(213)=  0.000286053963
  lambda(214)=  0.000315240038
  lambda(215)=  0.000480558495
  lambda(216)=  0.000740881205
  lambda(217)=  0.000816959524
  lambda(218)=  0.000850854040
  lambda(219)=  0.000915329721
  lambda(220)=  0.001055529396
  lambda(221)=  0.001229126144
  lambda(222)=  0.001365886830
  lambda(223)=  0.001607340446
  lambda(224)=  0.001783762048
  lambda(225)=  0.002063388683
  lambda(226)=  0.002066340630
  lambda(227)=  0.002424329870
  lambda(228)=  0.002568739828
  lambda(229)=  0.002574422684
  lambda(230)=  0.002963327567
  lambda(231)=  0.003392119947
  lambda(232)=  0.003611124604
  lambda(233)=  0.003746022334
  lambda(234)=  0.003916462898
  lambda(235)=  0.004263340979
  lambda(236)=  0.004820380767
  lambda(237)=  0.005002249947
  lambda(238)=  0.005494381320
  lambda(239)=  0.006336749068
  lambda(240)=  0.006701248834
  lambda(241)=  0.007819401077
  lambda(242)=  0.008244704170
  lambda(243)=  0.009174434748
  lambda(244)=  0.009618080888
  lambda(245)=  0.010015920885
  lambda(246)=  0.011644266914
  lambda(247)=  0.011746355955
  lambda(248)=  0.011789725211
  lambda(249)=  0.011940639667
  lambda(250)=  0.012406891193
  lambda(251)=  0.012758157042
  lambda(252)=  0.012878467270
  lambda(253)=  0.013041118079
  lambda(254)=  0.013347137136
  lambda(255)=  0.013677029252
  lambda(256)=  0.013886511615
  lambda(257)=  0.014599487938
  lambda(258)=  0.014910577581
  lambda(259)=  0.015484266716
  lambda(260)=  0.016469535737
  lambda(261)=  0.016471037351
  lambda(262)=  0.017033471926
  lambda(263)=  0.020251315800
  lambda(264)=  0.022030259594
  lambda(265)=  0.022908156050
  lambda(266)=  0.024889392631
  lambda(267)=  0.025033017492
  lambda(268)=  0.026606642368
  lambda(269)=  0.031186724106
  lambda(270)=  0.031661438079
  lambda(271)=  0.032318622222
  lambda(272)=  0.033432501525
  lambda(273)=  0.036571728615
  lambda(274)=  0.037269916034
  lambda(275)=  0.038044850671
  lambda(276)=  0.040373966498
  lambda(277)=  0.041431853820
  lambda(278)=  0.042816124733
  lambda(279)=  0.049471938239
  lambda(280)=  0.050892155180
  lambda(281)=  0.052969380316
  lambda(282)=  0.054434255668
  lambda(283)=  0.055947213225
  lambda(284)=  0.056652961091
  lambda(285)=  0.057235604396
  lambda(286)=  0.058002189226
  lambda(287)=  0.058261116975
  lambda(288)=  0.059719327165
  lambda(289)=  0.060078304065
  lambda(290)=  0.060533026189
  lambda(291)=  0.060843417115
  lambda(292)=  0.063246307454
  lambda(293)=  0.063852312517
  lambda(294)=  0.063877099306
  lambda(295)=  0.064335864415
  lambda(296)=  0.073450510590
  lambda(297)=  0.081593786958
  lambda(298)=  0.086873322345
  lambda(299)=  0.087114799191
  lambda(300)=  0.090596262138
  lambda(301)=  0.092295426927
  lambda(302)=  0.094640599876
  lambda(303)=  0.094997480487
  lambda(304)=  0.096967910967
  lambda(305)=  0.100652668940
  lambda(306)=  0.103681548605
  lambda(307)=  0.104581411954
  lambda(308)=  0.107259270159
  lambda(309)=  0.110306061355
  lambda(310)=  0.117399222829
  lambda(311)=  0.122937471147
  lambda(312)=  0.128405152092
  lambda(313)=  0.131145498343
  lambda(314)=  0.131164726043
  lambda(315)=  0.139726341329
  lambda(316)=  0.145153925373
  lambda(317)=  0.150410493457
  lambda(318)=  0.155818138257
  lambda(319)=  0.162003319239
  lambda(320)=  0.163898135925
  lambda(321)=  0.166960452302
  lambda(322)=  0.167851195865
  lambda(323)=  0.177264756763
  lambda(324)=  0.182311430901
  lambda(325)=  0.185287635443
  lambda(326)=  0.191857875852
  lambda(327)=  0.196296302132
  lambda(328)=  0.723185374809
  lambda(329)=  1.000000000000
  lambda(330)=  1.000000000000
[...]
  WF centre and spread   95  (  5.169064,  0.997978,  3.520684 )     2.02061091
  WF centre and spread   96  (  5.169064,  0.986463,  3.333268 )     1.98621368
  WF centre and spread   97  (  5.169064,  1.013293,  3.331820 )     2.02132778
  WF centre and spread   98  (  8.614571,  0.991659, -0.105975 )     1.99061474
  WF centre and spread   99  (  8.613006,  0.979724,  0.087769 )     2.00643171
  WF centre and spread  100  (  8.616391,  1.011540,  0.085803 )     2.00575019
  WF centre and spread  101  (  8.616620,  0.992694,  3.473533 )     1.99404128
  WF centre and spread  102  (  8.616935,  0.979414,  3.275276 )     2.01056742
  WF centre and spread  103  (  8.616587,  1.014392,  3.277050 )     2.00073574
  WF centre and spread  104  ( 12.061150,  1.008419, -0.165213 )     2.02235986
  WF centre and spread  105  ( 12.061150,  0.997224,  0.013983 )     1.96204875
  WF centre and spread  106  ( 12.061150,  1.019541,  0.014904 )     2.01769281
  WF centre and spread  107  ( 12.061149,  1.007731,  3.535959 )     2.02206337
  WF centre and spread  108  ( 12.061150,  0.996111,  3.353290 )     1.96845972
  WF centre and spread  109  ( 12.061149,  1.021266,  3.348562 )     1.99918553
  WF centre and spread  110  ( 10.352374,  3.968095, -0.165183 )     2.02272040
  WF centre and spread  111  ( 10.347319,  3.959959,  0.014667 )     2.00362446
  WF centre and spread  112  ( 10.350615,  3.987931,  0.014185 )     1.97568970
  WF centre and spread  113  ( 10.351833,  3.968234,  3.536024 )     2.02191530
  WF centre and spread  114  ( 10.348630,  3.960310,  3.349697 )     1.99162121
  WF centre and spread  115  ( 10.349774,  3.987491,  3.352087 )     1.97604580
  WF centre and spread  116  (  8.645302,  6.972734, -0.152230 )     2.01231293
  WF centre and spread  117  (  8.637563,  6.964871,  0.017147 )     1.97192165
  WF centre and spread  118  (  8.638319,  6.997586,  0.033791 )     2.02021789
  WF centre and spread  119  (  8.603665,  6.971045,  3.532460 )     2.08192965
  WF centre and spread  120  (  8.620854,  6.961933,  3.340850 )     1.98630498
  WF centre and spread  121  (  8.623928,  6.996264,  3.332554 )     2.03459621
  WF centre and spread  122  (  6.917083,  9.965457, -0.152350 )     2.01198889
  WF centre and spread  123  (  6.921450,  9.950599,  0.028957 )     2.00930235
  WF centre and spread  124  (  6.914858,  9.969767,  0.022091 )     1.98310215
  WF centre and spread  125  (  6.894498,  9.929814,  3.532579 )     2.08093341
  WF centre and spread  126  (  6.913529,  9.937172,  3.333556 )     2.01996843
  WF centre and spread  127  (  6.903863,  9.958882,  3.339650 )     2.00161939
  WF centre and spread  128  (  3.421046,  9.965458, -0.152349 )     2.01198830
  WF centre and spread  129  (  3.416678,  9.950599,  0.028956 )     2.00930224
  WF centre and spread  130  (  3.423270,  9.969767,  0.022091 )     1.98310217
  WF centre and spread  131  (  3.443629,  9.929814,  3.532579 )     2.08093278
  WF centre and spread  132  (  3.424599,  9.937173,  3.333556 )     2.01996864
  WF centre and spread  133  (  3.434266,  9.958882,  3.339650 )     2.00161951
  WF centre and spread  134  ( -0.005484,  9.948056, -0.159603 )     2.01196004
  WF centre and spread  135  ( -0.003250,  9.938881,  0.026158 )     2.00950159
  WF centre and spread  136  ( -0.005094,  9.963850,  0.024736 )     1.99223587
  WF centre and spread  137  (  0.005327,  9.941697,  3.520725 )     2.02088064
  WF centre and spread  138  (  0.003190,  9.933174,  3.332155 )     2.01260005
  WF centre and spread  139  (  0.003687,  9.960899,  3.332904 )     1.99474480
  WF centre and spread  140  ( -3.440558,  9.948057, -0.159603 )     2.01195978
  WF centre and spread  141  ( -3.442794,  9.938881,  0.026158 )     2.00950179
  WF centre and spread  142  ( -3.440949,  9.963850,  0.024736 )     1.99223579
  WF centre and spread  143  ( -3.451369,  9.941697,  3.520725 )     2.02088090
  WF centre and spread  144  ( -3.449233,  9.933174,  3.332155 )     2.01259985
  WF centre and spread  145  ( -3.449729,  9.960899,  3.332903 )     1.99474508
  WF centre and spread  146  (  6.897316,  3.944353, -0.152372 )     2.01211528
  WF centre and spread  147  (  6.884436,  3.941400,  0.030542 )     2.00781039
  WF centre and spread  148  (  6.893033,  3.962608,  0.020537 )     1.98464390
  WF centre and spread  149  (  6.877270,  3.981493,  3.532625 )     2.08147188
  WF centre and spread  150  (  6.880656,  3.955132,  3.335455 )     2.02623288
  WF centre and spread  151  (  6.885687,  3.977695,  3.337780 )     1.99511870
  WF centre and spread  152  (  5.169064,  6.962039,  0.005448 )     2.02638289
  WF centre and spread  153  (  5.169064,  6.938094,  0.198970 )     1.98845892
  WF centre and spread  154  (  5.169064,  6.989690,  0.198943 )     1.98804757
  WF centre and spread  155  (  5.169067,  6.962703,  3.392762 )     1.95208431
  WF centre and spread  156  (  5.169062,  6.944168,  3.254717 )     2.10428937
  WF centre and spread  157  (  5.169064,  6.983134,  3.254707 )     2.10388072
  WF centre and spread  158  (  1.692828,  6.972733, -0.152230 )     2.01231419
  WF centre and spread  159  (  1.700565,  6.964870,  0.017147 )     1.97192158
  WF centre and spread  160  (  1.699809,  6.997585,  0.033791 )     2.02021748
  WF centre and spread  161  (  1.734464,  6.971046,  3.532460 )     2.08192989
  WF centre and spread  162  (  1.717274,  6.961933,  3.340850 )     1.98630495
  WF centre and spread  163  (  1.714201,  6.996264,  3.332553 )     2.03459634
  WF centre and spread  164  (  3.440813,  3.944352, -0.152372 )     2.01211437
  WF centre and spread  165  (  3.453692,  3.941400,  0.030542 )     2.00780983
  WF centre and spread  166  (  3.445095,  3.962608,  0.020537 )     1.98464440
  WF centre and spread  167  (  3.460858,  3.981494,  3.532625 )     2.08147287
  WF centre and spread  168  (  3.457472,  3.955132,  3.335455 )     2.02623285
  WF centre and spread  169  (  3.452441,  3.977695,  3.337780 )     1.99511842
  WF centre and spread  170  ( -0.014246,  3.968095, -0.165184 )     2.02272058
  WF centre and spread  171  ( -0.009190,  3.959958,  0.014667 )     2.00362431
  WF centre and spread  172  ( -0.012486,  3.987930,  0.014185 )     1.97568978
  WF centre and spread  173  ( -0.013705,  3.968234,  3.536024 )     2.02191554
  WF centre and spread  174  ( -0.010501,  3.960310,  3.349697 )     1.99162058
  WF centre and spread  175  ( -0.011646,  3.987491,  3.352087 )     1.97604563
  WF centre and spread  176  ( -1.723022,  6.961503, -0.105915 )     1.99089108
  WF centre and spread  177  ( -1.723021,  6.946271,  0.084861 )     2.00555704
  WF centre and spread  178  ( -1.723021,  6.983679,  0.088650 )     2.00635279
  WF centre and spread  179  ( -1.723021,  6.958952,  3.473572 )     1.99414170
  WF centre and spread  180  ( -1.723021,  6.945505,  3.277847 )     1.99617355
  WF centre and spread  181  ( -1.723021,  6.979841,  3.274431 )     2.01515710
  Sum of centres and spreads (646.133023,918.191447,325.085767 )   342.32784068
 
         Spreads (Ang^2)       Omega I      =   324.491842606
        ================       Omega D      =     0.000187074
                               Omega OD     =    17.835810859
    Final Spread (Ang^2)       Omega Total  =   342.327840538
 ------------------------------------------------------------------------------
 Final centres (translated to home cell for writing xyz file)
  WF centre    1  (  5.169052,  6.978357,  6.179441 )
  WF centre    2  (  5.169085,  6.961463,  5.726090 )
  WF centre    3  (  5.169064,  6.956923,  5.725694 )
  WF centre    4  (  5.169062,  6.893288,  5.637330 )
  WF centre    5  (  5.169064,  7.027413,  5.636463 )
  WF centre    6  ( -0.069363, -0.003076,  1.686401 )
  WF centre    7  ( -0.054209, -0.005999,  1.681534 )
  WF centre    8  ( -0.058809,  0.008961,  1.683597 )
  WF centre    9  ( -0.064521,  0.153207,  1.681945 )
  WF centre   10  ( -0.056543, -0.142521,  1.682360 )
  WF centre   11  (  3.476560, -0.021473,  1.680223 )
  WF centre   12  (  3.473908, -0.024990,  1.681038 )
  WF centre   13  (  3.471937, -0.005995,  1.680701 )
  WF centre   14  (  3.480463,  0.136803,  1.682502 )
  WF centre   15  (  3.470951, -0.165703,  1.680958 )
  WF centre   16  (  6.861568, -0.021473,  1.680223 )
  WF centre   17  (  6.864221, -0.024990,  1.681038 )
  WF centre   18  (  6.866191, -0.005995,  1.680701 )
  WF centre   19  (  6.857666,  0.136803,  1.682502 )
  WF centre   20  (  6.867177, -0.165703,  1.680959 )
  WF centre   21  ( 10.407491, -0.003076,  1.686401 )
  WF centre   22  ( 10.392337, -0.005999,  1.681533 )
  WF centre   23  ( 10.396938,  0.008961,  1.683597 )
  WF centre   24  ( 10.402650,  0.153207,  1.681946 )
  WF centre   25  ( 10.394670, -0.142522,  1.682360 )
  WF centre   26  (  8.649888,  3.039000,  1.686573 )
  WF centre   27  (  8.641133,  3.023643,  1.684140 )
  WF centre   28  (  8.648105,  3.041581,  1.681438 )
  WF centre   29  (  8.642651,  3.183089,  1.680958 )
  WF centre   30  (  8.653486,  2.894452,  1.682758 )
  WF centre   31  (  7.022933,  5.890480,  1.672651 )
  WF centre   32  (  7.003979,  5.891809,  1.680542 )
  WF centre   33  (  7.012921,  5.911361,  1.668612 )
  WF centre   34  (  6.996989,  6.051995,  1.684562 )
  WF centre   35  (  7.017975,  5.756391,  1.680408 )
  WF centre   36  (  5.169064,  9.097618,  1.676025 )
  WF centre   37  (  5.169064,  9.086051,  1.661016 )
  WF centre   38  (  5.169064,  9.088874,  1.684457 )
  WF centre   39  (  5.169065,  9.244583,  1.678844 )
  WF centre   40  (  5.169063,  8.936120,  1.686740 )
  WF centre   41  (  1.709274,  8.955172,  1.680339 )
  WF centre   42  (  1.709479,  8.951448,  1.672711 )
  WF centre   43  (  1.709307,  8.970598,  1.676612 )
  WF centre   44  (  1.704494,  9.116189,  1.675463 )
  WF centre   45  (  1.722918,  8.808260,  1.679677 )
  WF centre   46  ( -1.723021,  8.983176,  1.680327 )
  WF centre   47  ( -1.723021,  8.972979,  1.680695 )
  WF centre   48  ( -1.723021,  8.995350,  1.681385 )
  WF centre   49  ( -1.723021,  9.140103,  1.679932 )
  WF centre   50  ( -1.723021,  8.841449,  1.683098 )
  WF centre   51  ( -5.155317,  8.955172,  1.680339 )
  WF centre   52  ( -5.155522,  8.951449,  1.672711 )
  WF centre   53  ( -5.155350,  8.970597,  1.676612 )
  WF centre   54  ( -5.150536,  9.116189,  1.675463 )
  WF centre   55  ( -5.168961,  8.808261,  1.679676 )
  WF centre   56  (  5.169064,  2.964672,  1.681711 )
  WF centre   57  (  5.169064,  2.958838,  1.679085 )
  WF centre   58  (  5.169064,  2.978340,  1.671151 )
  WF centre   59  (  5.169064,  3.134073,  1.680560 )
  WF centre   60  (  5.169064,  2.818762,  1.672338 )
  WF centre   61  (  3.315196,  5.890479,  1.672650 )
  WF centre   62  (  3.334150,  5.891809,  1.680543 )
  WF centre   63  (  3.325207,  5.911361,  1.668611 )
  WF centre   64  (  3.341140,  6.051994,  1.684562 )
  WF centre   65  (  3.320153,  5.756390,  1.680408 )
  WF centre   66  (  0.034264,  5.906483,  1.686475 )
  WF centre   67  (  0.027693,  5.905928,  1.682412 )
  WF centre   68  (  0.026315,  5.932246,  1.683030 )
  WF centre   69  (  0.035281,  6.061683,  1.683127 )
  WF centre   70  (  0.020286,  5.771321,  1.680818 )
  WF centre   71  (  1.688240,  3.039000,  1.686573 )
  WF centre   72  (  1.696995,  3.023643,  1.684140 )
  WF centre   73  (  1.690023,  3.041581,  1.681437 )
  WF centre   74  (  1.695478,  3.183088,  1.680958 )
  WF centre   75  (  1.684643,  2.894452,  1.682758 )
  WF centre   76  ( -1.723021,  2.979228,  1.682640 )
  WF centre   77  ( -1.723021,  2.974262,  1.680008 )
  WF centre   78  ( -1.723021,  2.994529,  1.680051 )
  WF centre   79  ( -1.723021,  3.135768,  1.681358 )
  WF centre   80  ( -1.723021,  2.839627,  1.681388 )
  WF centre   81  ( -3.480307,  5.906483,  1.686475 )
  WF centre   82  ( -3.473736,  5.905927,  1.682412 )
  WF centre   83  ( -3.472358,  5.932246,  1.683030 )
  WF centre   84  ( -3.481324,  6.061684,  1.683127 )
  WF centre   85  ( -3.466328,  5.771321,  1.680819 )
  WF centre   86  (  1.723558,  0.991659, -0.105976 )
  WF centre   87  (  1.725122,  0.979724,  0.087769 )
  WF centre   88  (  1.721738,  1.011540,  0.085803 )
  WF centre   89  (  1.721508,  0.992694,  3.473532 )
  WF centre   90  (  1.721193,  0.979414,  3.275275 )
  WF centre   91  (  1.721541,  1.014391,  3.277050 )
  WF centre   92  (  5.169064,  0.985691, -0.159519 )
  WF centre   93  (  5.169064,  0.976991,  0.024011 )
  WF centre   94  (  5.169064,  1.005015,  0.026813 )
  WF centre   95  (  5.169064,  0.997978,  3.520684 )
  WF centre   96  (  5.169064,  0.986463,  3.333268 )
  WF centre   97  (  5.169064,  1.013293,  3.331820 )
  WF centre   98  (  8.614571,  0.991659, -0.105975 )
  WF centre   99  (  8.613006,  0.979724,  0.087769 )
  WF centre  100  (  8.616391,  1.011540,  0.085803 )
  WF centre  101  (  8.616620,  0.992694,  3.473533 )
  WF centre  102  (  8.616935,  0.979414,  3.275276 )
  WF centre  103  (  8.616587,  1.014392,  3.277050 )
  WF centre  104  ( 12.061150,  1.008419, -0.165213 )
  WF centre  105  ( 12.061150,  0.997224,  0.013983 )
  WF centre  106  ( 12.061150,  1.019541,  0.014904 )
  WF centre  107  ( 12.061149,  1.007731,  3.535959 )
  WF centre  108  ( 12.061150,  0.996111,  3.353290 )
  WF centre  109  ( 12.061149,  1.021266,  3.348562 )
  WF centre  110  ( 10.352374,  3.968095, -0.165183 )
  WF centre  111  ( 10.347319,  3.959959,  0.014667 )
  WF centre  112  ( 10.350615,  3.987931,  0.014185 )
  WF centre  113  ( 10.351833,  3.968234,  3.536024 )
  WF centre  114  ( 10.348630,  3.960310,  3.349697 )
  WF centre  115  ( 10.349774,  3.987491,  3.352087 )
  WF centre  116  (  8.645302,  6.972734, -0.152230 )
  WF centre  117  (  8.637563,  6.964871,  0.017147 )
  WF centre  118  (  8.638319,  6.997586,  0.033791 )
  WF centre  119  (  8.603665,  6.971045,  3.532460 )
  WF centre  120  (  8.620854,  6.961933,  3.340850 )
  WF centre  121  (  8.623928,  6.996264,  3.332554 )
  WF centre  122  (  6.917083,  9.965457, -0.152350 )
  WF centre  123  (  6.921450,  9.950599,  0.028957 )
  WF centre  124  (  6.914858,  9.969767,  0.022091 )
  WF centre  125  (  6.894498,  9.929814,  3.532579 )
  WF centre  126  (  6.913529,  9.937172,  3.333556 )
  WF centre  127  (  6.903863,  9.958882,  3.339650 )
  WF centre  128  (  3.421046,  9.965458, -0.152349 )
  WF centre  129  (  3.416678,  9.950599,  0.028956 )
  WF centre  130  (  3.423270,  9.969767,  0.022091 )
  WF centre  131  (  3.443629,  9.929814,  3.532579 )
  WF centre  132  (  3.424599,  9.937173,  3.333556 )
  WF centre  133  (  3.434266,  9.958882,  3.339650 )
  WF centre  134  ( -0.005484,  9.948056, -0.159603 )
  WF centre  135  ( -0.003250,  9.938881,  0.026158 )
  WF centre  136  ( -0.005094,  9.963850,  0.024736 )
  WF centre  137  (  0.005327,  9.941697,  3.520725 )
  WF centre  138  (  0.003190,  9.933174,  3.332155 )
  WF centre  139  (  0.003687,  9.960899,  3.332904 )
  WF centre  140  ( -3.440558,  9.948057, -0.159603 )
  WF centre  141  ( -3.442794,  9.938881,  0.026158 )
  WF centre  142  ( -3.440949,  9.963850,  0.024736 )
  WF centre  143  ( -3.451369,  9.941697,  3.520725 )
  WF centre  144  ( -3.449233,  9.933174,  3.332155 )
  WF centre  145  ( -3.449729,  9.960899,  3.332903 )
  WF centre  146  (  6.897316,  3.944353, -0.152372 )
  WF centre  147  (  6.884436,  3.941400,  0.030542 )
  WF centre  148  (  6.893033,  3.962608,  0.020537 )
  WF centre  149  (  6.877270,  3.981493,  3.532625 )
  WF centre  150  (  6.880656,  3.955132,  3.335455 )
  WF centre  151  (  6.885687,  3.977695,  3.337780 )
  WF centre  152  (  5.169064,  6.962039,  0.005448 )
  WF centre  153  (  5.169064,  6.938094,  0.198970 )
  WF centre  154  (  5.169064,  6.989690,  0.198943 )
  WF centre  155  (  5.169067,  6.962703,  3.392762 )
  WF centre  156  (  5.169062,  6.944168,  3.254717 )
  WF centre  157  (  5.169064,  6.983134,  3.254707 )
  WF centre  158  (  1.692828,  6.972733, -0.152230 )
  WF centre  159  (  1.700565,  6.964870,  0.017147 )
  WF centre  160  (  1.699809,  6.997585,  0.033791 )
  WF centre  161  (  1.734464,  6.971046,  3.532460 )
  WF centre  162  (  1.717274,  6.961933,  3.340850 )
  WF centre  163  (  1.714201,  6.996264,  3.332553 )
  WF centre  164  (  3.440813,  3.944352, -0.152372 )
  WF centre  165  (  3.453692,  3.941400,  0.030542 )
  WF centre  166  (  3.445095,  3.962608,  0.020537 )
  WF centre  167  (  3.460858,  3.981494,  3.532625 )
  WF centre  168  (  3.457472,  3.955132,  3.335455 )
  WF centre  169  (  3.452441,  3.977695,  3.337780 )
  WF centre  170  ( -0.014246,  3.968095, -0.165184 )
  WF centre  171  ( -0.009190,  3.959958,  0.014667 )
  WF centre  172  ( -0.012486,  3.987930,  0.014185 )
  WF centre  173  ( -0.013705,  3.968234,  3.536024 )
  WF centre  174  ( -0.010501,  3.960310,  3.349697 )
  WF centre  175  ( -0.011646,  3.987491,  3.352087 )
  WF centre  176  ( -1.723022,  6.961503, -0.105915 )
  WF centre  177  ( -1.723021,  6.946271,  0.084861 )
  WF centre  178  ( -1.723021,  6.983679,  0.088650 )
  WF centre  179  ( -1.723021,  6.958952,  3.473572 )
  WF centre  180  ( -1.723021,  6.945505,  3.277847 )
  WF centre  181  ( -1.723021,  6.979841,  3.274431 )
 ------------------------------------------------------------------------------
 

 Wannier centres written to file 1Fe_initialconf.down_centres.xyz
  
  Omega Invariant:   1-s^2 =   324.491842606 (Ang^2)
                   -2log s =   330.808281962 (Ang^2)
                    acos^2 =   328.662312191 (Ang^2)
 Time for wannierise           46.349 (sec)

 Writing checkpoint file 1Fe_initialconf.down.chk... done

 *---------------------------------------------------------------------------*
 |                               PLOTTING                                    |
 *---------------------------------------------------------------------------*
 
   19 lattice points in Wigner-Seitz supercell:

      vector  -2  -2   0   degeneracy:  2
      vector  -2  -1   0   degeneracy:  1
      vector  -2   0   0   degeneracy:  2
      vector  -1  -2   0   degeneracy:  1
      vector  -1  -1   0   degeneracy:  1
      vector  -1   0   0   degeneracy:  1
      vector  -1   1   0   degeneracy:  1
      vector   0  -2   0   degeneracy:  2
      vector   0  -1   0   degeneracy:  1
      vector   0   0   0   degeneracy:  1
      vector   0   1   0   degeneracy:  1
      vector   0   2   0   degeneracy:  2
      vector   1  -1   0   degeneracy:  1
      vector   1   0   0   degeneracy:  1
      vector   1   1   0   degeneracy:  1
      vector   1   2   0   degeneracy:  1
      vector   2   0   0   degeneracy:  2
      vector   2   1   0   degeneracy:  1
      vector   2   2   0   degeneracy:  2
  tot =       16.000
  mp_grid product =           16
 
 Calculating interpolated band-structure
 
 Time to calculate interpolated band structure      23.354 (sec)
 
 Time for plotting             26.756 (sec)
 Total Execution Time         757.128 (sec)

 *===========================================================================*
 |                             TIMING INFORMATION                            |
 *===========================================================================*
 |    Tag                                                Ncalls      Time (s)|
 |---------------------------------------------------------------------------|
 |kmesh: get                                        :         1         0.032|
 |overlap: allocate                                 :         1         0.006|
 |overlap: read                                     :         1        63.892|
 |dis: main                                         :         1       619.983|
 |wann: main                                        :         1        46.349|
 |plot: main                                        :         1        26.756|
 *---------------------------------------------------------------------------*
 
 All done: wannier90 exiting
