
     Program PWSCF v.6.8 starts on 20Jul2023 at 18:44:41 

     This program is part of the open-source Quantum ESPRESSO suite
     for quantum simulation of materials; please cite
         "P. Giannozzi et al., J. Phys.:Condens. Matter 21 395502 (2009);
         "P. Giannozzi et al., J. Phys.:Condens. Matter 29 465901 (2017);
         "P. Giannozzi et al., J. Chem. Phys. 152 154105 (2020);
          URL http://www.quantum-espresso.org", 
     in publications or presentations arising from this work. More details at
     http://www.quantum-espresso.org/quote

     Parallel version (MPI & OpenMP), running on      80 processor cores
     Number of MPI processes:                80
     Threads/MPI process:                     1

     MPI processes distributed on     2 nodes
     R & G space division:  proc/nbgrp/npool/nimage =      80
     181495 MiB available memory on the printing compute node when the environment starts
 
     Reading input from 2cr.scf.in

     Current dimensions of program PWSCF are:
     Max number of different atomic species (ntypx) = 10
     Max number of k-points (npk) =  40000
     Max angular momentum in pseudopotentials (lmaxx) =  4
     file Cr.pbe-spn-kjpaw_psl.1.0.0.UPF: wavefunction(s)  3S 3P 3D renormalized
     file Nb.pbe-spn-kjpaw_psl.1.0.0.UPF: wavefunction(s)  4S 4P 4D renormalized
     file Se.pbe-n-kjpaw_psl.1.0.0.UPF: wavefunction(s)  4S renormalized

     Subspace diagonalization in iterative solution of the eigenvalue problem:
     one sub-group per band group will be used
     scalapack distributed-memory algorithm (size of sub-group:  8*  8 procs)

 
     Parallelization info
     --------------------
     sticks:   dense  smooth     PW     G-vecs:    dense   smooth      PW
     Min         467     174     45               125329    28766    3799
     Max         468     175     46               125336    28783    3810
     Sum       37435   13999   3643             10026649  2302489  304271
 
     Using Slab Decomposition
 


     bravais-lattice index     =            4
     lattice parameter (alat)  =      26.0483  a.u.
     unit-cell volume          =   26240.8884 (a.u.)^3
     number of atoms/cell      =           50
     number of atomic types    =            3
     number of electrons       =       428.00
     number of Kohn-Sham states=          257
     kinetic-energy cutoff     =      75.0000  Ry
     charge density cutoff     =     800.0000  Ry
     scf convergence threshold =      1.0E-07
     mixing beta               =       0.7000
     number of iterations used =            8  local-TF  mixing
     Exchange-correlation= SLA  PW   PBX  PBC
                           (   1   4   3   4   0   0   0)

     celldm(1)=  26.048308  celldm(2)=   0.000000  celldm(3)=   1.714389
     celldm(4)=   0.000000  celldm(5)=   0.000000  celldm(6)=   0.000000

     crystal axes: (cart. coord. in units of alat)
               a(1) = (   1.000000   0.000000   0.000000 )  
               a(2) = (  -0.500000   0.866025   0.000000 )  
               a(3) = (   0.000000   0.000000   1.714389 )  

     reciprocal axes: (cart. coord. in units 2 pi/alat)
               b(1) = (  1.000000  0.577350  0.000000 )  
               b(2) = (  0.000000  1.154701  0.000000 )  
               b(3) = (  0.000000  0.000000  0.583298 )  


     PseudoPot. # 1 for Cr read from file:
     /ptmp/jojaibal/YSR_Project/Cr.pbe-spn-kjpaw_psl.1.0.0.UPF
     MD5 check sum: 7e2868eaf0e426e74b90ebb04087dc43
     Pseudo is Projector augmented-wave + core cor, Zval = 14.0
     Generated using &quot;atomic&quot; code by A. Dal Corso  v.6.3
     Shape of augmentation charge: PSQ
     Using radial grid of 1183 points,  6 beta functions with: 
                l(1) =   0
                l(2) =   0
                l(3) =   1
                l(4) =   1
                l(5) =   2
                l(6) =   2
     Q(r) pseudized with 0 coefficients 


     PseudoPot. # 2 for Nb read from file:
     /ptmp/jojaibal/YSR_Project/Nb.pbe-spn-kjpaw_psl.1.0.0.UPF
     MD5 check sum: dcedcbb129af9a7271e4748e5febedb1
     Pseudo is Projector augmented-wave + core cor, Zval = 13.0
     Generated using &quot;atomic&quot; code by A. Dal Corso  v.6.2.2
     Shape of augmentation charge: PSQ
     Using radial grid of 1227 points,  6 beta functions with: 
                l(1) =   0
                l(2) =   0
                l(3) =   1
                l(4) =   1
                l(5) =   2
                l(6) =   2
     Q(r) pseudized with 0 coefficients 


     PseudoPot. # 3 for Se read from file:
     /ptmp/jojaibal/YSR_Project/Se.pbe-n-kjpaw_psl.1.0.0.UPF
     MD5 check sum: 12232cb78b362a7b0fca8da9cb95fd5e
     Pseudo is Projector augmented-wave + core cor, Zval =  6.0
     Generated using &quot;atomic&quot; code by A. Dal Corso  v.6.3
     Shape of augmentation charge: PSQ
     Using radial grid of 1211 points,  4 beta functions with: 
                l(1) =   0
                l(2) =   0
                l(3) =   1
                l(4) =   1
     Q(r) pseudized with 0 coefficients 


     atomic species   valence    mass     pseudopotential
        Cr            14.00    51.99610     Cr( 1.00)
        Nb            13.00    92.90638     Nb( 1.00)
        Se             6.00    78.96000     Se( 1.00)

     Starting magnetic structure 
     atomic species   magnetization
        Cr           0.500
        Nb           0.000
        Se           0.000


     Simplified LDA+U calculation (l_max = 2) with parameters (eV):
     atomic species    L          U    alpha       J0     beta
        Cr             2     4.0000   0.0000   0.0000   0.0000



     No symmetry found



   Cartesian axes

     site n.     atom                  positions (alat units)
         1           Cr  tau(   1) = (  -0.0000000   0.5773503   0.2860517  )
         2           Cr  tau(   2) = (   0.2466667   0.5773503   0.2860517  )
         3           Nb  tau(   3) = (   0.0000000   0.0000000   0.1229160  )
         4           Se  tau(   4) = (   0.1254089   0.0724049   0.0010778  )
         5           Se  tau(   5) = (   0.1251714   0.0722677   0.2449858  )
         6           Nb  tau(   6) = (   0.2517673   0.0002084   0.1234554  )
         7           Se  tau(   7) = (   0.3747267   0.0705210  -0.0026703  )
         8           Se  tau(   8) = (   0.3744687   0.0773147   0.2432424  )
         9           Nb  tau(   9) = (   0.5000000   0.0039564   0.1214542  )
        10           Se  tau(  10) = (   0.6252733   0.0705210  -0.0026703  )
        11           Se  tau(  11) = (   0.6255313   0.0773147   0.2432424  )
        12           Nb  tau(  12) = (   0.7482327   0.0002084   0.1234554  )
        13           Se  tau(  13) = (   0.8745911   0.0724049   0.0010778  )
        14           Se  tau(  14) = (   0.8748286   0.0722677   0.2449858  )
        15           Nb  tau(  15) = (   0.6227459   0.2178078   0.1170668  )
        16           Se  tau(  16) = (   0.7515637   0.2892623  -0.0026703  )
        17           Se  tau(  17) = (   0.7458091   0.2856421   0.2432424  )
        18           Nb  tau(  18) = (   0.5000000   0.4304099   0.1170668  )
        19           Se  tau(  19) = (   0.6262904   0.5062421  -0.0026703  )
        20           Se  tau(  20) = (   0.6202779   0.5030686   0.2432424  )
        21           Nb  tau(  21) = (   0.3742968   0.6478843   0.1234554  )
        22           Se  tau(  22) = (   0.5000000   0.7212157   0.0010778  )
        23           Se  tau(  23) = (   0.5000000   0.7214900   0.2449858  )
        24           Nb  tau(  24) = (   0.1252411   0.6496583   0.1347264  )
        25           Se  tau(  25) = (   0.2466517   0.7197547   0.0051095  )
        26           Se  tau(  26) = (   0.2537864   0.7238739   0.2493858  )
        27           Nb  tau(  27) = (  -0.1252412   0.6496583   0.1347264  )
        28           Se  tau(  28) = (   0.0000000   0.7186156   0.0095953  )
        29           Se  tau(  29) = (   0.0000000   0.7417567   0.2570242  )
        30           Nb  tau(  30) = (  -0.3742968   0.6478843   0.1234554  )
        31           Se  tau(  31) = (  -0.2466517   0.7197547   0.0051095  )
        32           Se  tau(  32) = (  -0.2537864   0.7238739   0.2493858  )
        33           Nb  tau(  33) = (   0.3772541   0.2178078   0.1170668  )
        34           Se  tau(  34) = (   0.5000000   0.2886751  -0.0074067  )
        35           Se  tau(  35) = (   0.5000000   0.2886751   0.2418116  )
        36           Nb  tau(  36) = (   0.2534264   0.4310345   0.1214542  )
        37           Se  tau(  37) = (   0.3737096   0.5062421  -0.0026703  )
        38           Se  tau(  38) = (   0.3797221   0.5030686   0.2432424  )
        39           Nb  tau(  39) = (  -0.0000000   0.4327342   0.1347264  )
        40           Se  tau(  40) = (   0.1223393   0.5067176   0.0095953  )
        41           Se  tau(  41) = (   0.1423801   0.4951471   0.2570242  )
        42           Nb  tau(  42) = (   0.1260641   0.2179327   0.1234554  )
        43           Se  tau(  43) = (   0.2484363   0.2892623  -0.0026703  )
        44           Se  tau(  44) = (   0.2541909   0.2856421   0.2432424  )
        45           Nb  tau(  45) = (  -0.1260641   0.2179327   0.1234554  )
        46           Se  tau(  46) = (   0.0000000   0.2925415   0.0051095  )
        47           Se  tau(  47) = (   0.0000000   0.2843030   0.2493858  )
        48           Nb  tau(  48) = (  -0.2534264   0.4310345   0.1214542  )
        49           Se  tau(  49) = (  -0.1223393   0.5067176   0.0095953  )
        50           Se  tau(  50) = (  -0.1423801   0.4951471   0.2570242  )

     number of k points=    20  Methfessel-Paxton smearing, width (Ry)=  0.0200
                       cart. coord. in units 2pi/alat
        k(    1) = (   0.0000000   0.0000000   0.0000000), wk =   0.0277778
        k(    2) = (   0.0000000   0.1924501   0.0000000), wk =   0.0555556
        k(    3) = (   0.0000000   0.3849002   0.0000000), wk =   0.0555556
        k(    4) = (   0.0000000  -0.5773503   0.0000000), wk =   0.0277778
        k(    5) = (   0.1666667   0.2886751   0.0000000), wk =   0.0555556
        k(    6) = (   0.1666667   0.4811252   0.0000000), wk =   0.0555556
        k(    7) = (   0.3333333   0.5773503   0.0000000), wk =   0.0555556
        k(    8) = (  -0.1666667   0.0962250   0.0000000), wk =   0.0555556
        k(    9) = (   0.1666667   0.0962250   0.0000000), wk =   0.0555556
        k(   10) = (  -0.3333333   0.1924501   0.0000000), wk =   0.0555556
        k(   11) = (   0.3333333   0.1924501   0.0000000), wk =   0.0555556
        k(   12) = (   0.5000000  -0.2886751   0.0000000), wk =   0.0277778
        k(   13) = (  -0.5000000  -0.2886751   0.0000000), wk =   0.0277778
        k(   14) = (  -0.1666667   0.2886751   0.0000000), wk =   0.0555556
        k(   15) = (   0.3333333  -0.0000000   0.0000000), wk =   0.0555556
        k(   16) = (  -0.1666667   0.4811252   0.0000000), wk =   0.0555556
        k(   17) = (  -0.3333333   0.3849002   0.0000000), wk =   0.0555556
        k(   18) = (   0.5000000   0.0962250   0.0000000), wk =   0.0555556
        k(   19) = (  -0.3333333  -0.3849002   0.0000000), wk =   0.0555556
        k(   20) = (   0.5000000  -0.0962250   0.0000000), wk =   0.0555556

     Dense  grid: 10026649 G-vectors     FFT dimensions: ( 240, 240, 405)

     Smooth grid:  2302489 G-vectors     FFT dimensions: ( 144, 144, 250)

     Estimated max dynamical RAM per process >       1.16 GB

     Estimated total dynamical RAM >      93.16 GB
     Generating pointlists ...
     new r_m :   0.0561 (alat units)  1.4605 (a.u.) for type    1
     new r_m :   0.0770 (alat units)  2.0050 (a.u.) for type    2
     new r_m :   0.0561 (alat units)  1.4605 (a.u.) for type    3

     Initial potential from superposition of free atoms

     starting charge  427.97509, renormalised to  428.00000

     negative rho (up, down):  1.437E-03 9.469E-04
     Number of +U iterations with fixed ns =  0
     Starting occupations:
 --- enter write_ns ---
 LDA+U parameters:
U( 1)     =  4.00000000
atom    1   Tr[ns(na)] (up, down, total) =   5.00000  0.00000  5.00000
   spin  1
    eigenvalues: 
  1.000  1.000  1.000  1.000  1.000
    eigenvectors:
  1.000  0.000  0.000  0.000  0.000
  0.000  1.000  0.000  0.000  0.000
  0.000  0.000  1.000  0.000  0.000
  0.000  0.000  0.000  1.000  0.000
  0.000  0.000  0.000  0.000  1.000
    occupations:
  1.000  0.000  0.000  0.000  0.000
  0.000  1.000  0.000  0.000  0.000
  0.000  0.000  1.000  0.000  0.000
  0.000  0.000  0.000  1.000  0.000
  0.000  0.000  0.000  0.000  1.000
   spin  2
    eigenvalues: 
  0.000  0.000  0.000  0.000  0.000
    eigenvectors:
  1.000  0.000  0.000  0.000  0.000
  0.000  1.000  0.000  0.000  0.000
  0.000  0.000  1.000  0.000  0.000
  0.000  0.000  0.000  1.000  0.000
  0.000  0.000  0.000  0.000  1.000
    occupations:
  0.000  0.000  0.000  0.000  0.000
  0.000  0.000  0.000  0.000  0.000
  0.000  0.000  0.000  0.000  0.000
  0.000  0.000  0.000  0.000  0.000
  0.000  0.000  0.000  0.000  0.000
atomic mag. moment =   5.00000
atom    2   Tr[ns(na)] (up, down, total) =   5.00000  0.00000  5.00000
   spin  1
    eigenvalues: 
  1.000  1.000  1.000  1.000  1.000
    eigenvectors:
  1.000  0.000  0.000  0.000  0.000
  0.000  1.000  0.000  0.000  0.000
  0.000  0.000  1.000  0.000  0.000
  0.000  0.000  0.000  1.000  0.000
  0.000  0.000  0.000  0.000  1.000
    occupations:
  1.000  0.000  0.000  0.000  0.000
  0.000  1.000  0.000  0.000  0.000
  0.000  0.000  1.000  0.000  0.000
  0.000  0.000  0.000  1.000  0.000
  0.000  0.000  0.000  0.000  1.000
   spin  2
    eigenvalues: 
  0.000  0.000  0.000  0.000  0.000
    eigenvectors:
  1.000  0.000  0.000  0.000  0.000
  0.000  1.000  0.000  0.000  0.000
  0.000  0.000  1.000  0.000  0.000
  0.000  0.000  0.000  1.000  0.000
  0.000  0.000  0.000  0.000  1.000
    occupations:
  0.000  0.000  0.000  0.000  0.000
  0.000  0.000  0.000  0.000  0.000
  0.000  0.000  0.000  0.000  0.000
  0.000  0.000  0.000  0.000  0.000
  0.000  0.000  0.000  0.000  0.000
atomic mag. moment =   5.00000
N of occupied +U levels =   10.000000
 --- exit write_ns ---
 Atomic wfc used for LDA+U Projector are NOT orthogonalized
     Starting wfcs are  356 randomized atomic wfcs
     Checking if some PAW data can be deallocated... 

     total cpu time spent up to now is      143.6 secs

     Self-consistent Calculation

     iteration #  1     ecut=    75.00 Ry     beta= 0.70
     Davidson diagonalization with overlap
     ethr =  1.00E-02,  avg # of iterations =  3.0
 --- enter write_ns ---
 LDA+U parameters:
U( 1)     =  4.00000000
atom    1   Tr[ns(na)] (up, down, total) =   4.91552  0.55713  5.47266
   spin  1
    eigenvalues: 
  0.975  0.977  0.979  0.992  0.992
    eigenvectors:
  0.075  0.117  0.805  0.000  0.004
  0.012  0.009  0.014  0.493  0.471
  0.028  0.008  0.001  0.464  0.500
  0.438  0.525  0.004  0.015  0.017
  0.447  0.341  0.176  0.028  0.008
    occupations:
  0.979  0.000  0.001  0.000 -0.001
  0.000  0.991  0.000  0.000 -0.003
  0.001  0.000  0.991 -0.003  0.001
  0.000  0.000 -0.003  0.977  0.001
 -0.001 -0.003  0.001  0.001  0.977
   spin  2
    eigenvalues: 
  0.075  0.084  0.105  0.145  0.148
    eigenvectors:
  0.002  0.004  0.994  0.000  0.000
  0.596  0.392  0.006  0.000  0.006
  0.395  0.604  0.000  0.000  0.001
  0.000  0.000  0.000  1.000  0.000
  0.006  0.001  0.000  0.000  0.993
    occupations:
  0.105  0.002  0.000  0.001 -0.001
  0.002  0.079  0.005 -0.000  0.005
  0.000  0.005  0.081 -0.001 -0.002
  0.001 -0.000 -0.001  0.145  0.000
 -0.001  0.005 -0.002  0.000  0.148
atomic mag. moment =   4.35839
atom    2   Tr[ns(na)] (up, down, total) =   4.87915  0.96489  5.84404
   spin  1
    eigenvalues: 
  0.953  0.967  0.983  0.986  0.990
    eigenvectors:
  0.120  0.005  0.819  0.028  0.029
  0.040  0.011  0.096  0.293  0.561
  0.012  0.053  0.002  0.553  0.380
  0.001  0.931  0.012  0.049  0.006
  0.828  0.000  0.072  0.077  0.023
    occupations:
  0.979 -0.001 -0.001 -0.001  0.010
 -0.001  0.987 -0.003  0.001  0.007
 -0.001 -0.003  0.986  0.004  0.003
 -0.001  0.001  0.004  0.969  0.001
  0.010  0.007  0.003  0.001  0.958
   spin  2
    eigenvalues: 
  0.119  0.141  0.158  0.247  0.300
    eigenvectors:
  0.036  0.899  0.001  0.008  0.056
  0.459  0.009  0.528  0.002  0.002
  0.502  0.032  0.459  0.007  0.001
  0.001  0.001  0.004  0.793  0.201
  0.003  0.059  0.009  0.190  0.740
    occupations:
  0.150 -0.005  0.001  0.009 -0.037
 -0.005  0.141  0.019  0.001  0.006
  0.001  0.019  0.139  0.006  0.007
  0.009  0.001  0.006  0.257 -0.020
 -0.037  0.006  0.007 -0.020  0.279
atomic mag. moment =   3.91426
N of occupied +U levels =   11.316697
 --- exit write_ns ---

     negative rho (up, down):  4.342E-06 3.891E-01

     total cpu time spent up to now is      382.4 secs

     total energy              =  -11904.27424263 Ry
     estimated scf accuracy    <       6.49698991 Ry

     total magnetization       =     8.74 Bohr mag/cell
     absolute magnetization    =    11.56 Bohr mag/cell

     iteration #  2     ecut=    75.00 Ry     beta= 0.70
     Davidson diagonalization with overlap
     ethr =  1.52E-03,  avg # of iterations =  2.5

     negative rho (up, down):  1.024E-05 1.595E-01

     total cpu time spent up to now is      596.0 secs

     total energy              =  -11905.34797797 Ry
     estimated scf accuracy    <       2.93105119 Ry

     total magnetization       =     6.15 Bohr mag/cell
     absolute magnetization    =     9.88 Bohr mag/cell

     iteration #  3     ecut=    75.00 Ry     beta= 0.70
     Davidson diagonalization with overlap
     ethr =  6.85E-04,  avg # of iterations =  1.0

     negative rho (up, down):  2.406E-07 9.512E-03

     total cpu time spent up to now is      772.1 secs

     total energy              =  -11905.24855767 Ry
     estimated scf accuracy    <       1.16632496 Ry

     total magnetization       =     6.15 Bohr mag/cell
     absolute magnetization    =    10.20 Bohr mag/cell

     iteration #  4     ecut=    75.00 Ry     beta= 0.70
     Davidson diagonalization with overlap
     ethr =  2.73E-04,  avg # of iterations =  3.4

     negative rho (up, down):  2.602E-07 1.397E-02

     total cpu time spent up to now is      981.2 secs

     total energy              =  -11905.32139869 Ry
     estimated scf accuracy    <       0.15127499 Ry

     total magnetization       =     5.70 Bohr mag/cell
     absolute magnetization    =    11.07 Bohr mag/cell

     iteration #  5     ecut=    75.00 Ry     beta= 0.70
     Davidson diagonalization with overlap
     c_bands:  4 eigenvalues not converged
     c_bands:  1 eigenvalues not converged
     c_bands:  1 eigenvalues not converged
     c_bands:  1 eigenvalues not converged
     ethr =  3.53E-05,  avg # of iterations = 11.2

     negative rho (up, down):  5.143E-07 1.548E-05

     total cpu time spent up to now is     1242.1 secs

     total energy              =  -11905.32656575 Ry
     estimated scf accuracy    <       0.08918537 Ry

     total magnetization       =     5.45 Bohr mag/cell
     absolute magnetization    =    11.09 Bohr mag/cell

     iteration #  6     ecut=    75.00 Ry     beta= 0.70
     Davidson diagonalization with overlap
     c_bands:  2 eigenvalues not converged
     ethr =  2.08E-05,  avg # of iterations =  2.9

     negative rho (up, down):  6.737E-07 8.153E-07

     total cpu time spent up to now is     1445.4 secs

     total energy              =  -11905.32701372 Ry
     estimated scf accuracy    <       0.04311037 Ry

     total magnetization       =     5.18 Bohr mag/cell
     absolute magnetization    =    11.16 Bohr mag/cell

     iteration #  7     ecut=    75.00 Ry     beta= 0.70
     Davidson diagonalization with overlap
     c_bands:  5 eigenvalues not converged
     c_bands:  1 eigenvalues not converged
     c_bands:  4 eigenvalues not converged
     c_bands:  1 eigenvalues not converged
     c_bands:  1 eigenvalues not converged
     ethr =  1.01E-05,  avg # of iterations =  7.8

     negative rho (up, down):  5.600E-07 3.957E-05

     total cpu time spent up to now is     1670.7 secs

     total energy              =  -11905.32246067 Ry
     estimated scf accuracy    <       0.02614291 Ry

     total magnetization       =     5.12 Bohr mag/cell
     absolute magnetization    =    11.30 Bohr mag/cell

     iteration #  8     ecut=    75.00 Ry     beta= 0.70
     Davidson diagonalization with overlap
     c_bands:  1 eigenvalues not converged
     c_bands:  2 eigenvalues not converged
     ethr =  6.11E-06,  avg # of iterations =  6.8

     negative rho (up, down):  1.476E-05 5.301E-04

     total cpu time spent up to now is     1896.0 secs

     total energy              =  -11905.32224940 Ry
     estimated scf accuracy    <       0.01610886 Ry

     total magnetization       =     4.90 Bohr mag/cell
     absolute magnetization    =    11.58 Bohr mag/cell

     iteration #  9     ecut=    75.00 Ry     beta= 0.70
     Davidson diagonalization with overlap
     c_bands:  1 eigenvalues not converged
     c_bands:  1 eigenvalues not converged
     c_bands:  1 eigenvalues not converged
     ethr =  3.76E-06,  avg # of iterations =  5.6

     negative rho (up, down):  1.768E-02 1.983E-02

     total cpu time spent up to now is     2110.0 secs

     total energy              =  -11905.32121825 Ry
     estimated scf accuracy    <       0.00951634 Ry

     total magnetization       =     4.79 Bohr mag/cell
     absolute magnetization    =    11.74 Bohr mag/cell

     iteration # 10     ecut=    75.00 Ry     beta= 0.70
     Davidson diagonalization with overlap
     c_bands:  4 eigenvalues not converged
     c_bands:  2 eigenvalues not converged
     c_bands:  1 eigenvalues not converged
     ethr =  2.22E-06,  avg # of iterations =  8.3

     negative rho (up, down):  2.726E-02 2.885E-02

     total cpu time spent up to now is     2338.2 secs

     total energy              =  -11905.32178823 Ry
     estimated scf accuracy    <       0.00444846 Ry

     total magnetization       =     4.68 Bohr mag/cell
     absolute magnetization    =    11.97 Bohr mag/cell

     iteration # 11     ecut=    75.00 Ry     beta= 0.70
     Davidson diagonalization with overlap
     ethr =  1.04E-06,  avg # of iterations =  2.2

     negative rho (up, down):  1.612E-02 1.673E-02

     total cpu time spent up to now is     2526.2 secs

     total energy              =  -11905.32222741 Ry
     estimated scf accuracy    <       0.00162346 Ry

     total magnetization       =     4.66 Bohr mag/cell
     absolute magnetization    =    12.03 Bohr mag/cell

     iteration # 12     ecut=    75.00 Ry     beta= 0.70
     Davidson diagonalization with overlap
     ethr =  3.79E-07,  avg # of iterations =  1.9

     negative rho (up, down):  9.787E-03 1.013E-02

     total cpu time spent up to now is     2721.4 secs

     total energy              =  -11905.32254142 Ry
     estimated scf accuracy    <       0.00038604 Ry

     total magnetization       =     4.65 Bohr mag/cell
     absolute magnetization    =    12.04 Bohr mag/cell

     iteration # 13     ecut=    75.00 Ry     beta= 0.70
     Davidson diagonalization with overlap
     ethr =  9.02E-08,  avg # of iterations =  2.8

     negative rho (up, down):  4.225E-03 4.339E-03

     total cpu time spent up to now is     2929.1 secs

     total energy              =  -11905.32262928 Ry
     estimated scf accuracy    <       0.00009251 Ry

     total magnetization       =     4.66 Bohr mag/cell
     absolute magnetization    =    12.05 Bohr mag/cell

     iteration # 14     ecut=    75.00 Ry     beta= 0.70
     Davidson diagonalization with overlap
     ethr =  2.16E-08,  avg # of iterations =  5.0

     negative rho (up, down):  1.987E-03 2.037E-03

     total cpu time spent up to now is     3161.5 secs

     total energy              =  -11905.32263217 Ry
     estimated scf accuracy    <       0.00003225 Ry

     total magnetization       =     4.69 Bohr mag/cell
     absolute magnetization    =    12.03 Bohr mag/cell

     iteration # 15     ecut=    75.00 Ry     beta= 0.70
     Davidson diagonalization with overlap
     ethr =  7.54E-09,  avg # of iterations =  3.0

     negative rho (up, down):  1.436E-03 1.477E-03

     total cpu time spent up to now is     3377.2 secs

     total energy              =  -11905.32264319 Ry
     estimated scf accuracy    <       0.00001103 Ry

     total magnetization       =     4.71 Bohr mag/cell
     absolute magnetization    =    12.01 Bohr mag/cell

     iteration # 16     ecut=    75.00 Ry     beta= 0.70
     Davidson diagonalization with overlap
     ethr =  2.58E-09,  avg # of iterations =  3.9

     negative rho (up, down):  1.119E-03 1.153E-03

     total cpu time spent up to now is     3588.8 secs

     total energy              =  -11905.32265737 Ry
     estimated scf accuracy    <       0.00000489 Ry

     total magnetization       =     4.72 Bohr mag/cell
     absolute magnetization    =    12.00 Bohr mag/cell

     iteration # 17     ecut=    75.00 Ry     beta= 0.70
     Davidson diagonalization with overlap
     ethr =  1.14E-09,  avg # of iterations =  3.7

     negative rho (up, down):  9.500E-04 9.797E-04

     total cpu time spent up to now is     3813.9 secs

     total energy              =  -11905.32266489 Ry
     estimated scf accuracy    <       0.00000177 Ry

     total magnetization       =     4.74 Bohr mag/cell
     absolute magnetization    =    11.99 Bohr mag/cell

     iteration # 18     ecut=    75.00 Ry     beta= 0.70
     Davidson diagonalization with overlap
     c_bands:  1 eigenvalues not converged
     ethr =  4.13E-10,  avg # of iterations =  4.7

     negative rho (up, down):  8.288E-04 8.573E-04

     total cpu time spent up to now is     4058.8 secs

     total energy              =  -11905.32266880 Ry
     estimated scf accuracy    <       0.00000048 Ry

     total magnetization       =     4.75 Bohr mag/cell
     absolute magnetization    =    11.98 Bohr mag/cell

     iteration # 19     ecut=    75.00 Ry     beta= 0.70
     Davidson diagonalization with overlap
     c_bands:  1 eigenvalues not converged
     ethr =  1.12E-10,  avg # of iterations =  6.6

     negative rho (up, down):  8.422E-04 8.734E-04
 
     Magnetic moment per site  (integrated on atomic sphere of radius R)
     atom   1 (R=0.056)  charge= 10.8103  magn=  2.9577
     atom   2 (R=0.056)  charge= 10.9212  magn=  2.5089
     atom   3 (R=0.077)  charge= 10.0186  magn= -0.0152
     atom   4 (R=0.056)  charge=  1.8783  magn=  0.0004
     atom   5 (R=0.056)  charge=  1.8803  magn= -0.0008
     atom   6 (R=0.077)  charge= 10.0198  magn=  0.0063
     atom   7 (R=0.056)  charge=  1.8788  magn= -0.0022
     atom   8 (R=0.056)  charge=  1.8824  magn= -0.0001
     atom   9 (R=0.077)  charge= 10.0380  magn= -0.1288
     atom  10 (R=0.056)  charge=  1.8785  magn= -0.0004
     atom  11 (R=0.056)  charge=  1.8830  magn=  0.0012
     atom  12 (R=0.077)  charge= 10.0266  magn= -0.1340
     atom  13 (R=0.056)  charge=  1.8781  magn=  0.0005
     atom  14 (R=0.056)  charge=  1.8811  magn=  0.0009
     atom  15 (R=0.077)  charge= 10.0282  magn= -0.0469
     atom  16 (R=0.056)  charge=  1.8794  magn= -0.0021
     atom  17 (R=0.056)  charge=  1.8825  magn= -0.0000
     atom  18 (R=0.077)  charge= 10.0339  magn= -0.1124
     atom  19 (R=0.056)  charge=  1.8787  magn= -0.0029
     atom  20 (R=0.056)  charge=  1.8834  magn=  0.0013
     atom  21 (R=0.077)  charge= 10.0492  magn= -0.1388
     atom  22 (R=0.056)  charge=  1.8779  magn=  0.0004
     atom  23 (R=0.056)  charge=  1.8821  magn= -0.0001
     atom  24 (R=0.077)  charge= 10.0549  magn= -0.1506
     atom  25 (R=0.056)  charge=  1.8789  magn=  0.0057
     atom  26 (R=0.056)  charge=  1.9298  magn= -0.0202
     atom  27 (R=0.077)  charge= 10.0189  magn= -0.2426
     atom  28 (R=0.056)  charge=  1.8787  magn=  0.0034
     atom  29 (R=0.056)  charge=  1.8955  magn= -0.0186
     atom  30 (R=0.077)  charge= 10.0213  magn= -0.1152
     atom  31 (R=0.056)  charge=  1.8788  magn=  0.0005
     atom  32 (R=0.056)  charge=  1.8812  magn= -0.0010
     atom  33 (R=0.077)  charge= 10.0299  magn=  0.0481
     atom  34 (R=0.056)  charge=  1.8799  magn= -0.0017
     atom  35 (R=0.056)  charge=  1.8814  magn= -0.0012
     atom  36 (R=0.077)  charge= 10.0644  magn= -0.0910
     atom  37 (R=0.056)  charge=  1.8787  magn= -0.0001
     atom  38 (R=0.056)  charge=  1.9174  magn= -0.0184
     atom  39 (R=0.077)  charge= 10.0252  magn= -0.2469
     atom  40 (R=0.056)  charge=  1.8794  magn=  0.0020
     atom  41 (R=0.056)  charge=  1.9919  magn= -0.0442
     atom  42 (R=0.077)  charge= 10.0215  magn=  0.0176
     atom  43 (R=0.056)  charge=  1.8783  magn= -0.0015
     atom  44 (R=0.056)  charge=  1.8841  magn= -0.0031
     atom  45 (R=0.077)  charge= 10.0193  magn= -0.0518
     atom  46 (R=0.056)  charge=  1.8785  magn=  0.0035
     atom  47 (R=0.056)  charge=  1.8820  magn= -0.0003
     atom  48 (R=0.077)  charge= 10.0357  magn= -0.1927
     atom  49 (R=0.056)  charge=  1.8793  magn=  0.0004
     atom  50 (R=0.056)  charge=  1.8939  magn= -0.0211

     total cpu time spent up to now is     4322.9 secs

     End of self-consistent calculation
 --- enter write_ns ---
 LDA+U parameters:
U( 1)     =  4.00000000
atom    1   Tr[ns(na)] (up, down, total) =   4.63478  0.63861  5.27339
   spin  1
    eigenvalues: 
  0.880  0.891  0.923  0.967  0.974
    eigenvectors:
  0.199  0.003  0.765  0.032  0.002
  0.011  0.016  0.060  0.888  0.025
  0.005  0.040  0.001  0.030  0.924
  0.224  0.649  0.082  0.003  0.042
  0.562  0.291  0.091  0.048  0.008
    occupations:
  0.916  0.006 -0.002 -0.011 -0.016
  0.006  0.962 -0.000  0.001 -0.015
 -0.002 -0.000  0.970 -0.017  0.004
 -0.011  0.001 -0.017  0.895 -0.002
 -0.016 -0.015  0.004 -0.002  0.892
   spin  2
    eigenvalues: 
  0.080  0.089  0.111  0.177  0.182
    eigenvectors:
  0.021  0.002  0.975  0.001  0.001
  0.791  0.183  0.023  0.002  0.002
  0.184  0.814  0.000  0.001  0.000
  0.002  0.001  0.000  0.873  0.124
  0.002  0.001  0.001  0.123  0.873
    occupations:
  0.111  0.004 -0.001  0.002 -0.003
  0.004  0.083  0.003 -0.003  0.005
 -0.001  0.003  0.087  0.004  0.000
  0.002 -0.003  0.004  0.177  0.002
 -0.003  0.005  0.000  0.002  0.181
atomic mag. moment =   3.99616
atom    2   Tr[ns(na)] (up, down, total) =   4.47756  1.22322  5.70078
   spin  1
    eigenvalues: 
  0.794  0.860  0.919  0.947  0.957
    eigenvectors:
  0.006  0.000  0.796  0.181  0.017
  0.001  0.005  0.124  0.234  0.635
  0.007  0.002  0.079  0.572  0.340
  0.030  0.963  0.000  0.001  0.007
  0.957  0.030  0.001  0.012  0.000
    occupations:
  0.924 -0.009 -0.005 -0.003  0.011
 -0.009  0.949 -0.008  0.008 -0.005
 -0.005 -0.008  0.947 -0.002 -0.013
 -0.003  0.008 -0.002  0.859  0.011
  0.011 -0.005 -0.013  0.011  0.798
   spin  2
    eigenvalues: 
  0.126  0.153  0.196  0.338  0.411
    eigenvectors:
  0.017  0.932  0.009  0.000  0.043
  0.520  0.001  0.478  0.001  0.000
  0.462  0.025  0.513  0.000  0.000
  0.000  0.003  0.001  0.942  0.053
  0.001  0.039  0.000  0.056  0.904
    occupations:
  0.164 -0.005 -0.000  0.013 -0.050
 -0.005  0.160  0.034 -0.005 -0.003
 -0.000  0.034  0.163 -0.000 -0.001
  0.013 -0.005 -0.000  0.341 -0.014
 -0.050 -0.003 -0.001 -0.014  0.396
atomic mag. moment =   3.25433
N of occupied +U levels =   10.974168
 --- exit write_ns ---

 ------ SPIN UP ------------


          k = 0.0000 0.0000 0.0000 (287679 PWs)   bands (ev):

   -73.4866 -73.3421 -56.1731 -56.1620 -56.1299 -56.1271 -56.1193 -56.1175
   -56.1142 -56.1084 -56.1065 -56.0866 -56.0724 -56.0662 -56.0646 -56.0534
   -56.0452 -56.0220 -45.2770 -44.9388 -44.8585 -44.8518 -44.7903 -44.7408
   -32.3765 -32.3733 -32.3432 -32.3357 -32.3268 -32.3156 -32.3104 -32.2920
   -32.2841 -32.2821 -32.2699 -32.2610 -32.2400 -32.2290 -32.2212 -32.2184
   -32.2145 -32.2109 -32.2070 -32.2031 -32.1951 -32.1945 -32.1908 -32.1883
   -32.1857 -32.1804 -32.1746 -32.1716 -32.1697 -32.1655 -32.1597 -32.1516
   -32.1379 -32.1349 -32.1263 -32.1246 -32.1215 -32.1137 -32.1081 -32.1047
   -32.0991 -32.0951 -32.0883 -32.0840 -32.0682 -32.0508 -32.0465 -32.0306
   -15.9920 -15.0470 -14.7697 -14.7164 -14.4328 -14.3453 -14.1207 -14.0436
   -14.0077 -13.9808 -13.8338 -13.8004 -13.6471 -13.5189 -13.5137 -13.5059
   -13.4503 -13.4035 -13.3654 -13.3540 -13.3296 -13.3245 -13.3164 -13.2551
   -13.2478 -13.2338 -13.1993 -13.1702 -13.1609 -13.1532 -13.1247 -13.1139
    -7.8692  -7.4587  -7.1481  -6.7353  -6.4921  -6.4195  -6.3111  -6.1291
    -6.0817  -6.0327  -5.9291  -5.8992  -5.8362  -5.7228  -5.7071  -5.5239
    -5.4903  -5.4283  -5.4264  -5.3965  -5.3766  -5.3366  -5.3005  -5.2853
    -5.2771  -5.2328  -5.2249  -5.1540  -5.1330  -5.0407  -5.0181  -4.9169
    -4.8567  -4.7643  -4.7047  -4.6124  -4.5880  -4.5049  -4.4709  -4.4231
    -4.4029  -4.3765  -4.3623  -4.3215  -4.3067  -4.2553  -4.1999  -4.1235
    -4.0519  -4.0091  -3.9904  -3.9473  -3.9356  -3.8916  -3.8682  -3.8055
    -3.7706  -3.7606  -3.7324  -3.6757  -3.6647  -3.6357  -3.5818  -3.5702
    -3.5420  -3.5244  -3.5118  -3.3937  -3.3869  -3.2815  -3.2219  -2.9030
    -2.8979  -2.8728  -2.8550  -2.8334  -2.8152  -2.7375  -2.6729  -2.6538
    -2.6377  -2.6268  -2.5812  -2.5429  -2.5286  -2.4688  -2.4452  -2.4154
    -2.3797  -2.3363  -2.3206  -2.2947  -2.2716  -2.2608  -2.2416  -2.1948
    -2.1529  -2.1125  -2.0685  -1.9792  -1.9325  -1.8392  -1.8150  -1.6807
    -1.5650  -1.3620  -1.3274  -1.2990  -1.2802  -1.2600  -1.2343  -1.1803
    -1.1225  -1.0501  -1.0147  -0.9723  -0.9534  -0.8698  -0.8418  -0.8169
    -0.6734  -0.6382   0.7124   0.8419   1.1058   1.1583   1.2131   1.2238
     1.2844   1.2931   1.3164   1.3280   1.3359   1.3464   1.3726   1.3832
     1.4235   1.4509   1.4766   1.4866   1.5090   1.5229   1.5270   1.5487
     1.5843   1.6994   1.7173   1.7537   1.7894   1.8291   1.8434   1.8568
     1.8855

          k = 0.0000 0.1925 0.0000 (287730 PWs)   bands (ev):

   -73.4866 -73.3421 -56.1731 -56.1620 -56.1299 -56.1271 -56.1193 -56.1174
   -56.1142 -56.1084 -56.1065 -56.0866 -56.0724 -56.0661 -56.0646 -56.0534
   -56.0452 -56.0220 -45.2770 -44.9388 -44.8585 -44.8518 -44.7903 -44.7408
   -32.3744 -32.3718 -32.3425 -32.3359 -32.3262 -32.3157 -32.3119 -32.2909
   -32.2854 -32.2831 -32.2706 -32.2609 -32.2451 -32.2357 -32.2284 -32.2214
   -32.2153 -32.2109 -32.2070 -32.1986 -32.1941 -32.1918 -32.1889 -32.1882
   -32.1838 -32.1772 -32.1751 -32.1696 -32.1674 -32.1611 -32.1571 -32.1500
   -32.1378 -32.1341 -32.1266 -32.1257 -32.1227 -32.1133 -32.1090 -32.1044
   -32.1002 -32.0938 -32.0891 -32.0841 -32.0691 -32.0512 -32.0473 -32.0322
   -15.9917 -15.0432 -14.7848 -14.7012 -14.4587 -14.3403 -14.1284 -14.0537
   -14.0096 -13.9326 -13.8134 -13.7825 -13.6441 -13.5478 -13.5224 -13.5076
   -13.4536 -13.4300 -13.3857 -13.3543 -13.3342 -13.3136 -13.3069 -13.2500
   -13.2463 -13.2301 -13.2054 -13.1852 -13.1701 -13.1339 -13.1131 -13.1048
    -7.8667  -7.4560  -7.1445  -6.7332  -6.4792  -6.4082  -6.3083  -6.1397
    -6.0749  -6.0277  -5.9271  -5.8851  -5.8311  -5.7454  -5.7046  -5.5461
    -5.5061  -5.4503  -5.4344  -5.3912  -5.3783  -5.3701  -5.3427  -5.3153
    -5.2770  -5.2366  -5.2079  -5.1573  -5.0822  -5.0075  -4.9799  -4.9264
    -4.8395  -4.7542  -4.7076  -4.6304  -4.5937  -4.5253  -4.5123  -4.4551
    -4.4183  -4.3978  -4.3604  -4.3360  -4.3121  -4.2681  -4.1769  -4.1239
    -4.0667  -4.0220  -3.9990  -3.9456  -3.9275  -3.8955  -3.8377  -3.8238
    -3.7827  -3.7518  -3.7333  -3.7062  -3.6817  -3.6166  -3.5878  -3.4896
    -3.4564  -3.4146  -3.3993  -3.3470  -3.2948  -3.2103  -3.1779  -3.0253
    -3.0000  -2.9579  -2.9274  -2.8428  -2.8161  -2.7628  -2.7094  -2.6804
    -2.6413  -2.6116  -2.5873  -2.5722  -2.5281  -2.4709  -2.4652  -2.4167
    -2.3749  -2.3442  -2.3289  -2.2993  -2.2711  -2.2000  -2.1917  -2.1507
    -2.1250  -2.0960  -2.0715  -2.0052  -1.9903  -1.8862  -1.7793  -1.7522
    -1.5799  -1.3859  -1.3581  -1.3077  -1.2683  -1.2168  -1.1858  -1.1644
    -1.1154  -1.0951  -1.0222  -0.9707  -0.8969  -0.8475  -0.8128  -0.7679
    -0.6611  -0.6269   0.7018   0.8363   1.0839   1.1512   1.1879   1.2010
     1.2367   1.2633   1.2850   1.3178   1.3291   1.3557   1.3606   1.3964
     1.4311   1.4550   1.4716   1.4919   1.5030   1.5208   1.5485   1.5729
     1.5795   1.6434   1.6998   1.7169   1.7587   1.8077   1.8205   1.8264
     1.8534

          k = 0.0000 0.3849 0.0000 (287830 PWs)   bands (ev):

   -73.4866 -73.3421 -56.1731 -56.1620 -56.1299 -56.1271 -56.1194 -56.1174
   -56.1141 -56.1084 -56.1066 -56.0866 -56.0725 -56.0660 -56.0647 -56.0534
   -56.0452 -56.0220 -45.2770 -44.9388 -44.8585 -44.8518 -44.7903 -44.7408
   -32.3709 -32.3665 -32.3458 -32.3326 -32.3248 -32.3170 -32.3125 -32.2909
   -32.2880 -32.2855 -32.2694 -32.2642 -32.2533 -32.2456 -32.2355 -32.2240
   -32.2200 -32.2116 -32.2055 -32.1959 -32.1926 -32.1900 -32.1869 -32.1846
   -32.1802 -32.1759 -32.1743 -32.1662 -32.1640 -32.1547 -32.1470 -32.1465
   -32.1357 -32.1329 -32.1295 -32.1263 -32.1234 -32.1143 -32.1106 -32.1036
   -32.1022 -32.0944 -32.0899 -32.0828 -32.0715 -32.0521 -32.0491 -32.0355
   -15.9910 -15.0350 -14.8054 -14.6810 -14.5005 -14.3385 -14.1301 -14.0718
   -14.0094 -13.8445 -13.7654 -13.7349 -13.6530 -13.5763 -13.5694 -13.5615
   -13.4568 -13.4353 -13.3835 -13.3577 -13.3474 -13.3242 -13.3142 -13.2529
   -13.2448 -13.2228 -13.2021 -13.1955 -13.1712 -13.1264 -13.0930 -13.0851
    -7.8617  -7.4507  -7.1371  -6.7290  -6.4483  -6.3901  -6.2945  -6.1600
    -6.0845  -6.0007  -5.9162  -5.8552  -5.8304  -5.7694  -5.7164  -5.5924
    -5.5402  -5.5151  -5.4643  -5.4374  -5.4048  -5.3732  -5.3405  -5.2961
    -5.2532  -5.2348  -5.2069  -5.1656  -5.1019  -5.0057  -4.9533  -4.8838
    -4.7954  -4.7280  -4.6470  -4.6298  -4.6112  -4.5615  -4.5288  -4.5035
    -4.4837  -4.4419  -4.4032  -4.3772  -4.3410  -4.2580  -4.2236  -4.1555
    -4.1165  -4.0564  -4.0050  -3.9498  -3.8856  -3.8466  -3.8055  -3.7807
    -3.7558  -3.6909  -3.6835  -3.6647  -3.6309  -3.5812  -3.5264  -3.4299
    -3.4026  -3.3635  -3.3146  -3.2506  -3.2272  -3.1494  -3.1189  -3.1029
    -3.0400  -2.9754  -2.9488  -2.9060  -2.8636  -2.7563  -2.7418  -2.7216
    -2.6760  -2.6447  -2.5825  -2.5608  -2.5340  -2.5018  -2.4823  -2.4578
    -2.4018  -2.3815  -2.3749  -2.3230  -2.2977  -2.2453  -2.2279  -2.1735
    -2.1405  -2.0740  -2.0512  -2.0175  -1.9729  -1.9051  -1.7885  -1.6911
    -1.5851  -1.4490  -1.3565  -1.3197  -1.2514  -1.2294  -1.1694  -1.1199
    -1.1044  -1.0722  -1.0222  -0.9558  -0.8748  -0.7928  -0.7595  -0.6673
    -0.6304  -0.6036   0.6793   0.8196   1.0333   1.1175   1.1257   1.1495
     1.1563   1.1816   1.2682   1.3118   1.3559   1.3616   1.3811   1.4104
     1.4265   1.4531   1.4631   1.4933   1.5000   1.5184   1.5399   1.5662
     1.5780   1.6373   1.6541   1.6791   1.7025   1.7368   1.7618   1.7752
     1.8056

          k = 0.0000-0.5774 0.0000 (287882 PWs)   bands (ev):

   -73.4866 -73.3421 -56.1731 -56.1620 -56.1299 -56.1271 -56.1195 -56.1174
   -56.1141 -56.1084 -56.1066 -56.0866 -56.0725 -56.0659 -56.0648 -56.0534
   -56.0452 -56.0220 -45.2770 -44.9388 -44.8585 -44.8518 -44.7903 -44.7408
   -32.3694 -32.3610 -32.3510 -32.3290 -32.3241 -32.3184 -32.3116 -32.2947
   -32.2884 -32.2857 -32.2698 -32.2660 -32.2537 -32.2511 -32.2384 -32.2249
   -32.2222 -32.2120 -32.2048 -32.1959 -32.1925 -32.1888 -32.1859 -32.1828
   -32.1779 -32.1774 -32.1724 -32.1657 -32.1613 -32.1532 -32.1447 -32.1422
   -32.1351 -32.1329 -32.1299 -32.1232 -32.1217 -32.1185 -32.1108 -32.1041
   -32.1020 -32.0979 -32.0885 -32.0815 -32.0733 -32.0525 -32.0503 -32.0371
   -15.9907 -15.0306 -14.8139 -14.6730 -14.5188 -14.3392 -14.1282 -14.0783
   -14.0116 -13.7742 -13.7341 -13.7136 -13.6823 -13.6138 -13.5929 -13.5719
   -13.4497 -13.4384 -13.3997 -13.3655 -13.3428 -13.3194 -13.3141 -13.2667
   -13.2442 -13.2362 -13.1940 -13.1870 -13.1713 -13.1252 -13.0836 -13.0765
    -7.8592  -7.4481  -7.1333  -6.7270  -6.4266  -6.3892  -6.2767  -6.1773
    -6.0928  -5.9807  -5.9080  -5.8658  -5.8172  -5.7578  -5.7281  -5.6255
    -5.5612  -5.5363  -5.4915  -5.4616  -5.4167  -5.3702  -5.3485  -5.2678
    -5.2497  -5.2267  -5.1835  -5.1654  -5.1272  -5.0046  -4.9509  -4.8787
    -4.7919  -4.7494  -4.6625  -4.6108  -4.5562  -4.5402  -4.5340  -4.5107
    -4.4783  -4.4588  -4.4283  -4.4103  -4.3708  -4.2948  -4.2393  -4.1663
    -4.1474  -4.0892  -3.9996  -3.9500  -3.8447  -3.8223  -3.7888  -3.7653
    -3.7301  -3.6561  -3.6188  -3.6024  -3.5936  -3.5604  -3.5220  -3.5006
    -3.3904  -3.3331  -3.2956  -3.2670  -3.2450  -3.1986  -3.1700  -3.0547
    -3.0351  -2.9515  -2.8212  -2.7798  -2.7669  -2.7557  -2.7295  -2.6988
    -2.6548  -2.6517  -2.6292  -2.6167  -2.5833  -2.5796  -2.5503  -2.5247
    -2.4691  -2.4378  -2.4157  -2.3737  -2.2859  -2.2744  -2.2026  -2.1999
    -2.1705  -2.1114  -2.0086  -1.9875  -1.9579  -1.9071  -1.7527  -1.6685
    -1.5666  -1.4723  -1.3531  -1.3247  -1.2524  -1.2309  -1.1967  -1.1069
    -1.0669  -1.0427  -1.0359  -0.9448  -0.8769  -0.7753  -0.7238  -0.6236
    -0.6082  -0.5924   0.6673   0.8085   1.0049   1.0807   1.0923   1.1146
     1.1396   1.1492   1.2757   1.3173   1.3585   1.3715   1.3882   1.4122
     1.4213   1.4469   1.4554   1.4772   1.5109   1.5297   1.5505   1.5632
     1.5962   1.6160   1.6405   1.6546   1.6718   1.6797   1.7027   1.7669
     1.7819

          k = 0.1667 0.2887 0.0000 (287748 PWs)   bands (ev):

   -73.4866 -73.3421 -56.1731 -56.1620 -56.1299 -56.1271 -56.1195 -56.1174
   -56.1141 -56.1084 -56.1065 -56.0866 -56.0725 -56.0660 -56.0647 -56.0534
   -56.0452 -56.0220 -45.2770 -44.9388 -44.8585 -44.8518 -44.7903 -44.7408
   -32.3720 -32.3679 -32.3446 -32.3330 -32.3248 -32.3173 -32.3132 -32.2924
   -32.2869 -32.2804 -32.2726 -32.2617 -32.2565 -32.2408 -32.2351 -32.2199
   -32.2161 -32.2119 -32.2079 -32.1993 -32.1937 -32.1915 -32.1889 -32.1837
   -32.1814 -32.1754 -32.1708 -32.1680 -32.1636 -32.1566 -32.1491 -32.1464
   -32.1377 -32.1335 -32.1283 -32.1264 -32.1244 -32.1125 -32.1102 -32.1051
   -32.1014 -32.0946 -32.0906 -32.0824 -32.0711 -32.0526 -32.0472 -32.0349
   -15.9911 -15.0403 -14.7832 -14.7036 -14.4883 -14.3314 -14.1459 -14.0748
   -13.9796 -13.8898 -13.7771 -13.7392 -13.6420 -13.5990 -13.5580 -13.4898
   -13.4723 -13.4425 -13.3957 -13.3752 -13.3497 -13.3142 -13.2795 -13.2685
   -13.2434 -13.2218 -13.2033 -13.1904 -13.1793 -13.1203 -13.1056 -13.0854
    -7.8640  -7.4523  -7.1379  -6.7302  -6.4618  -6.3994  -6.2836  -6.1635
    -6.0737  -6.0198  -5.9299  -5.8420  -5.8235  -5.7443  -5.7297  -5.5678
    -5.5477  -5.4927  -5.4586  -5.4280  -5.3909  -5.3735  -5.3316  -5.3141
    -5.2942  -5.2694  -5.1698  -5.1130  -5.0754  -5.0346  -4.9487  -4.8798
    -4.8516  -4.7412  -4.6766  -4.6369  -4.6063  -4.5482  -4.5101  -4.4931
    -4.4613  -4.4397  -4.4092  -4.3968  -4.3259  -4.2903  -4.1939  -4.1523
    -4.1220  -4.0154  -3.9848  -3.9255  -3.9053  -3.8455  -3.8139  -3.7856
    -3.7548  -3.7332  -3.6643  -3.6388  -3.6242  -3.5963  -3.5228  -3.4981
    -3.4167  -3.3888  -3.3480  -3.2793  -3.2006  -3.1618  -3.1333  -3.0814
    -3.0572  -3.0038  -2.9706  -2.9361  -2.8044  -2.7547  -2.7347  -2.6892
    -2.6730  -2.6335  -2.5926  -2.5656  -2.5448  -2.4881  -2.4858  -2.4291
    -2.4174  -2.3721  -2.3647  -2.3025  -2.2633  -2.2240  -2.1984  -2.1466
    -2.1081  -2.0973  -2.0420  -2.0275  -2.0005  -1.9345  -1.8079  -1.7010
    -1.5942  -1.4030  -1.3774  -1.3259  -1.2558  -1.2031  -1.1638  -1.1442
    -1.1098  -1.0648  -1.0275  -0.9337  -0.8880  -0.8330  -0.7745  -0.6877
    -0.6405  -0.6041   0.6731   0.8439   1.0386   1.0930   1.1430   1.1892
     1.2090   1.2468   1.2590   1.2846   1.3144   1.3469   1.3731   1.4070
     1.4390   1.4472   1.4686   1.4996   1.5083   1.5358   1.5494   1.5607
     1.6063   1.6188   1.6348   1.7079   1.7256   1.7525   1.7595   1.7804
     1.8019

          k = 0.1667 0.4811 0.0000 (287831 PWs)   bands (ev):

   -73.4866 -73.3421 -56.1731 -56.1620 -56.1299 -56.1271 -56.1195 -56.1174
   -56.1141 -56.1084 -56.1066 -56.0866 -56.0725 -56.0659 -56.0648 -56.0534
   -56.0452 -56.0220 -45.2770 -44.9388 -44.8585 -44.8518 -44.7903 -44.7408
   -32.3699 -32.3612 -32.3498 -32.3292 -32.3244 -32.3183 -32.3115 -32.2930
   -32.2898 -32.2847 -32.2740 -32.2661 -32.2568 -32.2471 -32.2360 -32.2241
   -32.2180 -32.2128 -32.2065 -32.1997 -32.1942 -32.1915 -32.1867 -32.1822
   -32.1797 -32.1751 -32.1681 -32.1649 -32.1607 -32.1533 -32.1445 -32.1417
   -32.1354 -32.1332 -32.1291 -32.1246 -32.1221 -32.1176 -32.1102 -32.1049
   -32.1022 -32.0976 -32.0896 -32.0816 -32.0736 -32.0538 -32.0487 -32.0368
   -15.9906 -15.0323 -14.8085 -14.6809 -14.5115 -14.3358 -14.1500 -14.0870
   -13.9618 -13.8379 -13.7297 -13.7089 -13.6729 -13.5989 -13.5754 -13.5469
   -13.4680 -13.4474 -13.4108 -13.3839 -13.3469 -13.3272 -13.2769 -13.2677
   -13.2466 -13.2340 -13.2087 -13.1796 -13.1732 -13.1163 -13.0963 -13.0686
    -7.8596  -7.4484  -7.1330  -6.7278  -6.4312  -6.3936  -6.2723  -6.1692
    -6.0856  -6.0001  -5.9290  -5.8448  -5.7987  -5.7579  -5.7220  -5.6139
    -5.5877  -5.5370  -5.4972  -5.4528  -5.3970  -5.3841  -5.3468  -5.3095
    -5.2610  -5.2109  -5.1713  -5.1208  -5.0889  -5.0100  -4.9446  -4.8674
    -4.8241  -4.7459  -4.6774  -4.6496  -4.6029  -4.5746  -4.5513  -4.5138
    -4.4810  -4.4698  -4.4126  -4.4004  -4.3545  -4.3271  -4.2551  -4.1713
    -4.1317  -4.0443  -3.9473  -3.8831  -3.8419  -3.8243  -3.7621  -3.7427
    -3.7014  -3.6798  -3.6412  -3.6110  -3.5756  -3.5532  -3.4872  -3.4450
    -3.4229  -3.3632  -3.3271  -3.2905  -3.2834  -3.2186  -3.1720  -3.1387
    -3.0929  -2.9480  -2.8186  -2.7976  -2.7689  -2.7529  -2.7103  -2.6981
    -2.6665  -2.6567  -2.6255  -2.5936  -2.5470  -2.5322  -2.5028  -2.4793
    -2.4422  -2.4123  -2.3986  -2.3557  -2.3327  -2.2794  -2.2351  -2.2069
    -2.1716  -2.1071  -2.0675  -2.0259  -1.9512  -1.9133  -1.7742  -1.6359
    -1.5871  -1.4090  -1.3843  -1.3029  -1.2568  -1.2251  -1.1901  -1.1463
    -1.0885  -1.0497  -0.9956  -0.9209  -0.8557  -0.7988  -0.7526  -0.6477
    -0.6004  -0.5594   0.6550   0.8236   0.9857   1.0054   1.1061   1.1691
     1.1890   1.2183   1.2710   1.2946   1.3253   1.3514   1.3740   1.4072
     1.4250   1.4359   1.4494   1.4888   1.5056   1.5317   1.5591   1.5774
     1.5928   1.6135   1.6303   1.6528   1.6781   1.6932   1.7160   1.7350
     1.7459

          k = 0.3333 0.5774 0.0000 (287970 PWs)   bands (ev):

   -73.4866 -73.3421 -56.1731 -56.1620 -56.1299 -56.1272 -56.1195 -56.1174
   -56.1141 -56.1084 -56.1066 -56.0866 -56.0725 -56.0660 -56.0647 -56.0534
   -56.0452 -56.0220 -45.2770 -44.9389 -44.8585 -44.8519 -44.7903 -44.7408
   -32.3700 -32.3602 -32.3478 -32.3291 -32.3237 -32.3174 -32.3090 -32.2994
   -32.2876 -32.2847 -32.2771 -32.2708 -32.2570 -32.2483 -32.2298 -32.2250
   -32.2187 -32.2138 -32.2091 -32.2022 -32.1958 -32.1893 -32.1885 -32.1823
   -32.1785 -32.1741 -32.1674 -32.1618 -32.1589 -32.1500 -32.1460 -32.1405
   -32.1347 -32.1322 -32.1290 -32.1236 -32.1219 -32.1142 -32.1105 -32.1041
   -32.1009 -32.0999 -32.0916 -32.0846 -32.0752 -32.0562 -32.0488 -32.0350
   -15.9904 -15.0278 -14.8309 -14.6580 -14.5109 -14.3317 -14.1888 -14.0898
   -13.9100 -13.8458 -13.7697 -13.6937 -13.6351 -13.5806 -13.5462 -13.5337
   -13.5134 -13.4930 -13.4135 -13.3995 -13.3462 -13.3175 -13.2671 -13.2612
   -13.2500 -13.2384 -13.2319 -13.1708 -13.1628 -13.1184 -13.0944 -13.0602
    -7.8571  -7.4481  -7.1321  -6.7320  -6.4175  -6.4070  -6.2811  -6.1456
    -6.0641  -6.0139  -5.9570  -5.8337  -5.7784  -5.7205  -5.6983  -5.6460
    -5.6032  -5.5822  -5.5159  -5.4420  -5.4210  -5.3901  -5.3428  -5.3181
    -5.2653  -5.1790  -5.1319  -5.1114  -5.0260  -5.0112  -4.9414  -4.8911
    -4.8064  -4.7724  -4.7279  -4.7023  -4.6569  -4.6006  -4.5795  -4.5224
    -4.4987  -4.4664  -4.4394  -4.4149  -4.3696  -4.3157  -4.2046  -4.1591
    -4.1021  -3.9727  -3.9219  -3.8889  -3.8510  -3.7874  -3.7425  -3.7064
    -3.6576  -3.6302  -3.6171  -3.5911  -3.5590  -3.5432  -3.4883  -3.4607
    -3.4208  -3.3862  -3.3550  -3.2923  -3.2685  -3.2293  -3.2204  -3.1745
    -3.0953  -3.0102  -2.9867  -2.8125  -2.7350  -2.6875  -2.6745  -2.6578
    -2.6231  -2.6038  -2.5593  -2.5552  -2.5299  -2.5005  -2.4912  -2.4734
    -2.4538  -2.4251  -2.4138  -2.3887  -2.3665  -2.3508  -2.3003  -2.2633
    -2.1741  -2.1361  -2.1224  -2.0175  -1.9474  -1.8994  -1.7755  -1.6077
    -1.5561  -1.4172  -1.3151  -1.2900  -1.2844  -1.2466  -1.2073  -1.1638
    -1.0870  -1.0480  -0.9633  -0.8922  -0.8441  -0.7953  -0.7542  -0.6477
    -0.6107  -0.5110   0.6419   0.8293   0.9452   0.9688   1.0943   1.1673
     1.2293   1.2580   1.2900   1.3089   1.3260   1.3423   1.3507   1.3881
     1.4016   1.4255   1.4384   1.4727   1.5030   1.5166   1.5631   1.5780
     1.6047   1.6131   1.6307   1.6427   1.6574   1.6785   1.6862   1.7098
     1.7334

          k =-0.1667 0.0962 0.0000 (287730 PWs)   bands (ev):

   -73.4866 -73.3421 -56.1731 -56.1620 -56.1299 -56.1271 -56.1193 -56.1175
   -56.1142 -56.1084 -56.1065 -56.0866 -56.0724 -56.0662 -56.0646 -56.0534
   -56.0452 -56.0220 -45.2770 -44.9388 -44.8585 -44.8518 -44.7903 -44.7408
   -32.3754 -32.3714 -32.3420 -32.3350 -32.3269 -32.3155 -32.3105 -32.2923
   -32.2865 -32.2818 -32.2697 -32.2635 -32.2430 -32.2390 -32.2263 -32.2195
   -32.2150 -32.2092 -32.2067 -32.2042 -32.1987 -32.1922 -32.1886 -32.1856
   -32.1794 -32.1780 -32.1739 -32.1701 -32.1660 -32.1626 -32.1584 -32.1487
   -32.1375 -32.1349 -32.1276 -32.1245 -32.1208 -32.1137 -32.1080 -32.1047
   -32.1003 -32.0953 -32.0888 -32.0849 -32.0693 -32.0520 -32.0479 -32.0308
   -15.9917 -15.0416 -14.8029 -14.6826 -14.4476 -14.3446 -14.1578 -14.0598
   -13.9797 -13.9308 -13.8343 -13.7635 -13.6399 -13.5701 -13.5275 -13.4716
   -13.4499 -13.4328 -13.4001 -13.3694 -13.3328 -13.3088 -13.2957 -13.2690
   -13.2421 -13.2217 -13.2008 -13.1831 -13.1622 -13.1551 -13.1089 -13.1007
    -7.8658  -7.4566  -7.1452  -6.7361  -6.4820  -6.4139  -6.3095  -6.1269
    -6.0697  -6.0205  -5.9671  -5.8664  -5.8289  -5.7317  -5.6837  -5.5478
    -5.5071  -5.4620  -5.4388  -5.4049  -5.3854  -5.3695  -5.3304  -5.3115
    -5.2730  -5.2309  -5.2121  -5.1492  -5.0931  -5.0259  -4.9718  -4.9128
    -4.8570  -4.7530  -4.7220  -4.6404  -4.5720  -4.5394  -4.4972  -4.4558
    -4.4191  -4.4040  -4.3722  -4.3305  -4.2997  -4.2375  -4.1861  -4.1542
    -4.0659  -4.0359  -3.9856  -3.9524  -3.9232  -3.8746  -3.8345  -3.8128
    -3.7953  -3.7577  -3.7177  -3.6833  -3.6549  -3.6306  -3.5947  -3.5027
    -3.4628  -3.4293  -3.3930  -3.3423  -3.3196  -3.2159  -3.1652  -3.0378
    -2.9659  -2.9536  -2.9085  -2.8803  -2.8252  -2.7538  -2.7142  -2.6769
    -2.6481  -2.6214  -2.6093  -2.5593  -2.5282  -2.4636  -2.4462  -2.4197
    -2.3723  -2.3475  -2.3211  -2.2808  -2.2639  -2.2362  -2.1907  -2.1633
    -2.1344  -2.1192  -2.0601  -2.0348  -1.9728  -1.8935  -1.7814  -1.6900
    -1.5598  -1.4128  -1.3632  -1.3075  -1.2718  -1.2337  -1.2032  -1.1318
    -1.1093  -1.0765  -1.0263  -0.9940  -0.8958  -0.8264  -0.7964  -0.7878
    -0.6681  -0.6290   0.6968   0.8531   1.0886   1.1370   1.1824   1.2176
     1.2338   1.2614   1.2929   1.3014   1.3209   1.3453   1.3708   1.4101
     1.4249   1.4554   1.4777   1.4896   1.5038   1.5208   1.5493   1.5679
     1.5958   1.6311   1.7024   1.7430   1.7825   1.7985   1.8216   1.8304
     1.8409

          k = 0.1667 0.0962 0.0000 (287730 PWs)   bands (ev):

   -73.4866 -73.3421 -56.1731 -56.1620 -56.1299 -56.1271 -56.1194 -56.1174
   -56.1141 -56.1084 -56.1065 -56.0866 -56.0725 -56.0661 -56.0646 -56.0534
   -56.0452 -56.0220 -45.2770 -44.9388 -44.8585 -44.8518 -44.7903 -44.7408
   -32.3747 -32.3718 -32.3425 -32.3351 -32.3258 -32.3160 -32.3122 -32.2935
   -32.2852 -32.2787 -32.2706 -32.2627 -32.2476 -32.2369 -32.2269 -32.2205
   -32.2134 -32.2093 -32.2069 -32.2012 -32.1952 -32.1925 -32.1903 -32.1879
   -32.1817 -32.1781 -32.1744 -32.1693 -32.1648 -32.1629 -32.1568 -32.1497
   -32.1378 -32.1345 -32.1275 -32.1256 -32.1216 -32.1128 -32.1089 -32.1047
   -32.1006 -32.0947 -32.0890 -32.0842 -32.0694 -32.0517 -32.0468 -32.0318
   -15.9917 -15.0446 -14.7798 -14.7055 -14.4559 -14.3364 -14.1391 -14.0696
   -13.9957 -13.9212 -13.8282 -13.7690 -13.6391 -13.5719 -13.5244 -13.4698
   -13.4549 -13.4318 -13.4046 -13.3726 -13.3304 -13.3011 -13.2956 -13.2613
   -13.2501 -13.2216 -13.2021 -13.1868 -13.1746 -13.1333 -13.1148 -13.1016
    -7.8671  -7.4564  -7.1440  -6.7343  -6.4832  -6.4143  -6.2982  -6.1467
    -6.0624  -6.0303  -5.9490  -5.8623  -5.8331  -5.7230  -5.7088  -5.5413
    -5.5050  -5.4607  -5.4388  -5.4023  -5.3811  -5.3733  -5.3425  -5.3044
    -5.2730  -5.2376  -5.2093  -5.1315  -5.1079  -5.0136  -4.9778  -4.8974
    -4.8523  -4.7765  -4.7183  -4.6446  -4.5938  -4.5285  -4.4926  -4.4642
    -4.4157  -4.4027  -4.3684  -4.3386  -4.2709  -4.2382  -4.1914  -4.1629
    -4.0689  -4.0550  -3.9891  -3.9572  -3.8993  -3.8748  -3.8293  -3.8025
    -3.7856  -3.7655  -3.7449  -3.7059  -3.6574  -3.6184  -3.5808  -3.5163
    -3.4606  -3.4113  -3.3675  -3.3469  -3.2947  -3.2484  -3.1480  -3.0508
    -2.9812  -2.9431  -2.9237  -2.8731  -2.8341  -2.7361  -2.7096  -2.6834
    -2.6752  -2.6228  -2.5658  -2.5570  -2.5283  -2.4844  -2.4382  -2.4143
    -2.3955  -2.3598  -2.3423  -2.2595  -2.2418  -2.2115  -2.1963  -2.1821
    -2.1315  -2.0986  -2.0548  -2.0178  -1.9786  -1.8973  -1.8135  -1.7072
    -1.5642  -1.4079  -1.3604  -1.2929  -1.2655  -1.2454  -1.1964  -1.1363
    -1.0966  -1.0693  -1.0392  -0.9847  -0.9134  -0.8305  -0.8076  -0.7745
    -0.6695  -0.6248   0.6925   0.8555   1.0827   1.1448   1.1831   1.2325
     1.2458   1.2537   1.2757   1.3002   1.3310   1.3525   1.3688   1.3867
     1.4265   1.4445   1.4767   1.4938   1.5103   1.5230   1.5453   1.5770
     1.5875   1.6654   1.6940   1.7300   1.7615   1.7826   1.8149   1.8217
     1.8511

          k =-0.3333 0.1925 0.0000 (287830 PWs)   bands (ev):

   -73.4866 -73.3421 -56.1731 -56.1620 -56.1299 -56.1272 -56.1193 -56.1176
   -56.1141 -56.1084 -56.1066 -56.0866 -56.0724 -56.0662 -56.0645 -56.0534
   -56.0452 -56.0220 -45.2770 -44.9388 -44.8585 -44.8518 -44.7903 -44.7408
   -32.3732 -32.3666 -32.3414 -32.3321 -32.3266 -32.3151 -32.3105 -32.2965
   -32.2874 -32.2830 -32.2735 -32.2643 -32.2534 -32.2463 -32.2317 -32.2247
   -32.2176 -32.2114 -32.2071 -32.2039 -32.1957 -32.1915 -32.1857 -32.1815
   -32.1765 -32.1739 -32.1701 -32.1673 -32.1617 -32.1585 -32.1521 -32.1415
   -32.1368 -32.1339 -32.1295 -32.1232 -32.1206 -32.1132 -32.1074 -32.1043
   -32.1031 -32.0962 -32.0903 -32.0865 -32.0724 -32.0560 -32.0493 -32.0312
   -15.9909 -15.0291 -14.8429 -14.6421 -14.4776 -14.3379 -14.2106 -14.0628
   -13.9729 -13.8359 -13.7897 -13.7098 -13.6394 -13.6046 -13.5750 -13.5250
   -13.4760 -13.4270 -13.3843 -13.3782 -13.3370 -13.3244 -13.3130 -13.2713
   -13.2399 -13.2235 -13.1918 -13.1818 -13.1624 -13.1556 -13.0869 -13.0810
    -7.8588  -7.4523  -7.1394  -6.7389  -6.4547  -6.3996  -6.3133  -6.1208
    -6.0461  -6.0239  -5.9736  -5.8523  -5.7984  -5.7273  -5.6569  -5.6005
    -5.5419  -5.5222  -5.4894  -5.4515  -5.4223  -5.3764  -5.3567  -5.2937
    -5.2544  -5.2417  -5.2052  -5.1246  -5.0939  -5.0174  -4.9459  -4.8903
    -4.8184  -4.7612  -4.6878  -4.6401  -4.6011  -4.5497  -4.5189  -4.4971
    -4.4564  -4.4493  -4.4312  -4.4106  -4.3319  -4.2275  -4.2061  -4.1446
    -4.1066  -4.0812  -3.9961  -3.9129  -3.8705  -3.8402  -3.8062  -3.7739
    -3.7431  -3.7242  -3.6848  -3.6360  -3.6083  -3.5664  -3.5357  -3.4578
    -3.4172  -3.3598  -3.2997  -3.2707  -3.2219  -3.1654  -3.1191  -3.0777
    -3.0280  -2.9840  -2.9691  -2.9016  -2.8673  -2.8153  -2.7572  -2.6937
    -2.6680  -2.6456  -2.5959  -2.5634  -2.5282  -2.5136  -2.4946  -2.4345
    -2.4034  -2.3971  -2.3523  -2.3459  -2.2967  -2.2476  -2.2220  -2.1942
    -2.1645  -2.0898  -2.0619  -2.0259  -1.9681  -1.8459  -1.7527  -1.6879
    -1.5326  -1.4600  -1.4197  -1.3196  -1.2633  -1.1933  -1.1696  -1.1238
    -1.1002  -1.0761  -1.0279  -0.9575  -0.8475  -0.7802  -0.7429  -0.6928
    -0.6588  -0.5938   0.6745   0.8543   1.0514   1.0796   1.1223   1.1447
     1.1619   1.1739   1.2921   1.3020   1.3439   1.3607   1.3832   1.4030
     1.4504   1.4543   1.4685   1.4767   1.5123   1.5230   1.5441   1.5691
     1.5875   1.6291   1.6688   1.6880   1.7241   1.7390   1.7560   1.7791
     1.8004

          k = 0.3333 0.1925 0.0000 (287830 PWs)   bands (ev):

   -73.4866 -73.3421 -56.1731 -56.1620 -56.1299 -56.1272 -56.1196 -56.1173
   -56.1141 -56.1084 -56.1065 -56.0866 -56.0725 -56.0660 -56.0647 -56.0534
   -56.0452 -56.0220 -45.2770 -44.9388 -44.8585 -44.8518 -44.7903 -44.7408
   -32.3719 -32.3661 -32.3447 -32.3314 -32.3248 -32.3170 -32.3124 -32.2974
   -32.2870 -32.2768 -32.2719 -32.2649 -32.2594 -32.2438 -32.2352 -32.2270
   -32.2124 -32.2095 -32.2064 -32.2010 -32.1933 -32.1910 -32.1894 -32.1837
   -32.1803 -32.1757 -32.1717 -32.1648 -32.1605 -32.1547 -32.1501 -32.1427
   -32.1373 -32.1340 -32.1297 -32.1266 -32.1217 -32.1120 -32.1105 -32.1055
   -32.1021 -32.0956 -32.0916 -32.0831 -32.0723 -32.0540 -32.0471 -32.0342
   -15.9909 -15.0397 -14.7951 -14.6875 -14.4980 -14.3195 -14.1726 -14.0773
   -13.9931 -13.8294 -13.7813 -13.7143 -13.6311 -13.6171 -13.5716 -13.5216
   -13.4889 -13.4302 -13.3911 -13.3670 -13.3346 -13.3272 -13.3086 -13.2558
   -13.2479 -13.2229 -13.2007 -13.1916 -13.1701 -13.1302 -13.0915 -13.0823
    -7.8628  -7.4517  -7.1357  -6.7330  -6.4598  -6.4032  -6.2740  -6.1694
    -6.0551  -6.0232  -5.9486  -5.8237  -5.7939  -5.7389  -5.7128  -5.5909
    -5.5525  -5.5095  -5.4712  -5.4400  -5.4216  -5.3738  -5.3517  -5.3229
    -5.2567  -5.2416  -5.1987  -5.1104  -5.0785  -5.0187  -4.9543  -4.9025
    -4.7917  -4.7595  -4.7043  -4.6460  -4.6060  -4.5641  -4.5202  -4.4973
    -4.4629  -4.4497  -4.4286  -4.3938  -4.3498  -4.2414  -4.2057  -4.1607
    -4.1232  -4.0547  -3.9779  -3.9022  -3.8801  -3.8674  -3.7899  -3.7659
    -3.7275  -3.7186  -3.6960  -3.6418  -3.6069  -3.5997  -3.5000  -3.4607
    -3.3940  -3.3785  -3.3012  -3.2767  -3.2156  -3.1570  -3.1087  -3.0614
    -3.0304  -2.9905  -2.9648  -2.9168  -2.8691  -2.7981  -2.7563  -2.7277
    -2.6842  -2.6135  -2.5784  -2.5701  -2.5247  -2.5161  -2.4943  -2.4403
    -2.4213  -2.3944  -2.3664  -2.3449  -2.2826  -2.2464  -2.2115  -2.1765
    -2.1276  -2.0830  -2.0644  -2.0207  -1.9554  -1.8914  -1.7963  -1.7014
    -1.5456  -1.4490  -1.4081  -1.3259  -1.2579  -1.2004  -1.1502  -1.1209
    -1.0766  -1.0632  -1.0081  -0.9718  -0.8911  -0.8222  -0.7223  -0.6864
    -0.6373  -0.6021   0.6599   0.8651   1.0376   1.0870   1.1264   1.1510
     1.1748   1.1926   1.2826   1.3036   1.3339   1.3614   1.3833   1.3918
     1.4375   1.4439   1.4597   1.4953   1.5215   1.5467   1.5554   1.5628
     1.5700   1.6235   1.6594   1.6764   1.7253   1.7436   1.7486   1.7704
     1.7884

          k = 0.5000-0.2887 0.0000 (287882 PWs)   bands (ev):

   -73.4866 -73.3421 -56.1731 -56.1620 -56.1299 -56.1272 -56.1192 -56.1176
   -56.1141 -56.1084 -56.1066 -56.0866 -56.0724 -56.0663 -56.0645 -56.0534
   -56.0452 -56.0220 -45.2770 -44.9388 -44.8585 -44.8519 -44.7903 -44.7408
   -32.3720 -32.3636 -32.3424 -32.3308 -32.3243 -32.3141 -32.3113 -32.3003
   -32.2881 -32.2843 -32.2752 -32.2641 -32.2558 -32.2505 -32.2341 -32.2271
   -32.2190 -32.2129 -32.2069 -32.2041 -32.1941 -32.1905 -32.1851 -32.1784
   -32.1771 -32.1723 -32.1684 -32.1662 -32.1607 -32.1560 -32.1483 -32.1398
   -32.1360 -32.1328 -32.1301 -32.1218 -32.1205 -32.1126 -32.1074 -32.1042
   -32.1025 -32.0979 -32.0914 -32.0870 -32.0749 -32.0584 -32.0497 -32.0314
   -15.9906 -15.0217 -14.8599 -14.6250 -14.4930 -14.3308 -14.2350 -14.0623
   -13.9737 -13.7604 -13.7383 -13.7298 -13.6653 -13.6119 -13.5877 -13.5267
   -13.5184 -13.4363 -13.3832 -13.3575 -13.3397 -13.3264 -13.3252 -13.2776
   -13.2487 -13.2304 -13.1884 -13.1715 -13.1622 -13.1529 -13.0782 -13.0725
    -7.8553  -7.4503  -7.1366  -6.7408  -6.4349  -6.3929  -6.3178  -6.1192
    -6.0508  -6.0235  -5.9548  -5.8514  -5.7778  -5.7230  -5.6495  -5.6030
    -5.5705  -5.5535  -5.5370  -5.4773  -5.4286  -5.3801  -5.3712  -5.2884
    -5.2599  -5.2178  -5.1752  -5.1094  -5.0780  -5.0694  -4.9393  -4.9022
    -4.8022  -4.7219  -4.6768  -4.6548  -4.5997  -4.5563  -4.5407  -4.5113
    -4.4893  -4.4668  -4.4423  -4.4314  -4.3500  -4.2316  -4.2097  -4.1581
    -4.1438  -4.0924  -3.9825  -3.8986  -3.8425  -3.8062  -3.7796  -3.7542
    -3.7057  -3.6722  -3.6293  -3.6009  -3.5889  -3.5706  -3.5300  -3.4997
    -3.4077  -3.3616  -3.2996  -3.2735  -3.1986  -3.1814  -3.1208  -3.0776
    -3.0429  -2.9765  -2.8487  -2.8163  -2.7839  -2.7654  -2.7277  -2.6987
    -2.6722  -2.6491  -2.6378  -2.6183  -2.5980  -2.5676  -2.5464  -2.5274
    -2.4914  -2.4607  -2.4009  -2.3457  -2.2936  -2.2838  -2.2522  -2.2138
    -2.1353  -2.0946  -2.0341  -2.0024  -1.9285  -1.8218  -1.7464  -1.6915
    -1.5018  -1.4629  -1.4509  -1.3332  -1.2327  -1.2116  -1.1665  -1.1019
    -1.0981  -1.0708  -1.0282  -0.9405  -0.8252  -0.7549  -0.7215  -0.6762
    -0.6340  -0.5666   0.6655   0.8472   1.0301   1.0461   1.0861   1.1088
     1.1173   1.1473   1.2885   1.3292   1.3492   1.3874   1.3988   1.4113
     1.4322   1.4407   1.4674   1.4840   1.4999   1.5355   1.5528   1.5660
     1.5987   1.6194   1.6309   1.6593   1.6824   1.6902   1.7242   1.7560
     1.7845

          k =-0.5000-0.2887 0.0000 (287882 PWs)   bands (ev):

   -73.4866 -73.3421 -56.1731 -56.1620 -56.1298 -56.1272 -56.1196 -56.1173
   -56.1140 -56.1084 -56.1065 -56.0866 -56.0725 -56.0659 -56.0648 -56.0534
   -56.0452 -56.0220 -45.2770 -44.9388 -44.8585 -44.8518 -44.7903 -44.7408
   -32.3708 -32.3608 -32.3488 -32.3286 -32.3254 -32.3162 -32.3084 -32.3027
   -32.2891 -32.2805 -32.2720 -32.2634 -32.2596 -32.2498 -32.2381 -32.2298
   -32.2123 -32.2112 -32.2057 -32.2000 -32.1936 -32.1897 -32.1894 -32.1815
   -32.1795 -32.1752 -32.1704 -32.1628 -32.1592 -32.1511 -32.1457 -32.1413
   -32.1377 -32.1324 -32.1295 -32.1251 -32.1211 -32.1146 -32.1100 -32.1069
   -32.1010 -32.0988 -32.0922 -32.0820 -32.0742 -32.0555 -32.0472 -32.0354
   -15.9905 -15.0370 -14.8016 -14.6786 -14.5185 -14.3103 -14.1878 -14.0780
   -13.9938 -13.7585 -13.7510 -13.6894 -13.6744 -13.6169 -13.5929 -13.5371
   -13.5213 -13.4437 -13.3768 -13.3463 -13.3454 -13.3275 -13.3207 -13.2741
   -13.2469 -13.2304 -13.2009 -13.1810 -13.1638 -13.1300 -13.0819 -13.0740
    -7.8607  -7.4494  -7.1314  -6.7328  -6.4439  -6.3985  -6.2608  -6.1830
    -6.0603  -6.0164  -5.9401  -5.8108  -5.7589  -5.7389  -5.7174  -5.6124
    -5.6025  -5.5357  -5.4893  -5.4585  -5.4242  -5.3785  -5.3740  -5.3142
    -5.2601  -5.1991  -5.1835  -5.1396  -5.0621  -5.0171  -4.9762  -4.8934
    -4.7796  -4.7128  -4.6932  -4.6472  -4.6434  -4.5570  -4.5430  -4.5201
    -4.4807  -4.4684  -4.4451  -4.4251  -4.3666  -4.2696  -4.2050  -4.1856
    -4.1232  -4.0794  -3.9331  -3.9091  -3.8621  -3.8234  -3.7714  -3.7322
    -3.7054  -3.6659  -3.6231  -3.6123  -3.5756  -3.5606  -3.5313  -3.5089
    -3.4382  -3.3522  -3.2946  -3.2880  -3.2085  -3.1483  -3.1283  -3.0639
    -3.0324  -2.9637  -2.8708  -2.7959  -2.7629  -2.7615  -2.7255  -2.7084
    -2.6836  -2.6680  -2.6578  -2.6354  -2.5921  -2.5648  -2.5366  -2.5012
    -2.4733  -2.4324  -2.4195  -2.3768  -2.3052  -2.2562  -2.2474  -2.2019
    -2.1425  -2.0704  -2.0229  -2.0006  -1.9155  -1.8819  -1.7768  -1.7013
    -1.5250  -1.4531  -1.4252  -1.3482  -1.2425  -1.2112  -1.1361  -1.1085
    -1.0689  -1.0464  -0.9946  -0.9659  -0.8661  -0.8330  -0.6934  -0.6446
    -0.6047  -0.5936   0.6447   0.8636   1.0143   1.0542   1.0916   1.1041
     1.1472   1.1656   1.2565   1.3307   1.3731   1.3827   1.3907   1.4089
     1.4349   1.4472   1.4635   1.4872   1.4956   1.5215   1.5444   1.5731
     1.5849   1.6256   1.6268   1.6569   1.6623   1.7077   1.7122   1.7470
     1.7849

          k =-0.1667 0.2887 0.0000 (287748 PWs)   bands (ev):

   -73.4866 -73.3421 -56.1731 -56.1620 -56.1299 -56.1271 -56.1193 -56.1175
   -56.1141 -56.1084 -56.1066 -56.0866 -56.0724 -56.0662 -56.0646 -56.0534
   -56.0452 -56.0220 -45.2770 -44.9388 -44.8585 -44.8518 -44.7903 -44.7408
   -32.3728 -32.3681 -32.3423 -32.3335 -32.3273 -32.3155 -32.3103 -32.2914
   -32.2872 -32.2859 -32.2732 -32.2617 -32.2522 -32.2453 -32.2260 -32.2228
   -32.2174 -32.2121 -32.2085 -32.2045 -32.1955 -32.1914 -32.1878 -32.1828
   -32.1779 -32.1747 -32.1717 -32.1663 -32.1638 -32.1568 -32.1534 -32.1455
   -32.1368 -32.1339 -32.1290 -32.1255 -32.1211 -32.1139 -32.1089 -32.1039
   -32.1022 -32.0931 -32.0905 -32.0854 -32.0710 -32.0534 -32.0493 -32.0326
   -15.9912 -15.0335 -14.8244 -14.6600 -14.4847 -14.3380 -14.1650 -14.0791
   -13.9511 -13.8997 -13.7904 -13.7288 -13.6417 -13.5935 -13.5616 -13.4921
   -13.4763 -13.4334 -13.3886 -13.3792 -13.3482 -13.3210 -13.2846 -13.2684
   -13.2474 -13.2154 -13.1993 -13.1884 -13.1783 -13.1317 -13.1026 -13.0827
    -7.8613  -7.4527  -7.1403  -6.7337  -6.4597  -6.3963  -6.3124  -6.1296
    -6.0690  -6.0120  -5.9638  -5.8495  -5.8097  -5.7620  -5.6746  -5.5929
    -5.5425  -5.5143  -5.4782  -5.4181  -5.3942  -5.3508  -5.3287  -5.3202
    -5.2799  -5.2481  -5.1830  -5.1371  -5.0801  -5.0240  -4.9702  -4.9000
    -4.8092  -4.7499  -4.6971  -4.6184  -4.5676  -4.5477  -4.5144  -4.4896
    -4.4754  -4.4430  -4.4301  -4.3799  -4.3502  -4.2649  -4.2018  -4.1481
    -4.0813  -4.0423  -3.9840  -3.9240  -3.9019  -3.8357  -3.8253  -3.7883
    -3.7471  -3.7087  -3.6799  -3.6638  -3.6015  -3.5679  -3.5348  -3.5253
    -3.4385  -3.3827  -3.3539  -3.2972  -3.2081  -3.1680  -3.1386  -3.0839
    -3.0509  -2.9918  -2.9598  -2.9025  -2.8318  -2.7452  -2.7229  -2.6996
    -2.6633  -2.6486  -2.5999  -2.5589  -2.5403  -2.5177  -2.4485  -2.4329
    -2.4099  -2.3751  -2.3558  -2.3214  -2.2713  -2.2333  -2.2028  -2.1588
    -2.1331  -2.1043  -2.0557  -2.0329  -1.9570  -1.9166  -1.7874  -1.6956
    -1.5802  -1.4066  -1.3697  -1.3514  -1.2347  -1.2154  -1.1619  -1.1460
    -1.1146  -1.0995  -1.0322  -0.9230  -0.8613  -0.8124  -0.7851  -0.6938
    -0.6469  -0.6025   0.6817   0.8380   1.0487   1.0946   1.1208   1.1849
     1.1969   1.2393   1.2755   1.2980   1.3114   1.3430   1.3836   1.4015
     1.4513   1.4625   1.4739   1.4923   1.5020   1.5184   1.5419   1.5567
     1.5872   1.6366   1.6600   1.6877   1.7253   1.7511   1.7590   1.7968
     1.8126

          k = 0.3333-0.0000 0.0000 (287748 PWs)   bands (ev):

   -73.4866 -73.3421 -56.1731 -56.1620 -56.1299 -56.1272 -56.1194 -56.1175
   -56.1141 -56.1084 -56.1065 -56.0866 -56.0724 -56.0662 -56.0646 -56.0534
   -56.0452 -56.0220 -45.2770 -44.9388 -44.8585 -44.8518 -44.7903 -44.7408
   -32.3733 -32.3680 -32.3419 -32.3331 -32.3247 -32.3163 -32.3127 -32.2962
   -32.2871 -32.2774 -32.2722 -32.2641 -32.2555 -32.2456 -32.2345 -32.2189
   -32.2147 -32.2077 -32.2069 -32.2024 -32.1983 -32.1913 -32.1883 -32.1847
   -32.1798 -32.1748 -32.1717 -32.1668 -32.1606 -32.1571 -32.1541 -32.1439
   -32.1365 -32.1343 -32.1297 -32.1249 -32.1201 -32.1127 -32.1091 -32.1044
   -32.1022 -32.0957 -32.0907 -32.0856 -32.0716 -32.0542 -32.0481 -32.0319
   -15.9911 -15.0369 -14.8173 -14.6672 -14.4740 -14.3355 -14.1853 -14.0679
   -13.9843 -13.8638 -13.7894 -13.7267 -13.6279 -13.6086 -13.5648 -13.4955
   -13.4667 -13.4332 -13.4067 -13.3740 -13.3488 -13.3203 -13.2875 -13.2654
   -13.2335 -13.2278 -13.2004 -13.1866 -13.1771 -13.1339 -13.1007 -13.0814
    -7.8621  -7.4534  -7.1394  -6.7369  -6.4652  -6.4088  -6.2949  -6.1427
    -6.0358  -6.0294  -5.9691  -5.8470  -5.8093  -5.7258  -5.6906  -5.5811
    -5.5257  -5.4891  -5.4706  -5.4399  -5.4014  -5.3830  -5.3700  -5.3254
    -5.2803  -5.2206  -5.1720  -5.1243  -5.0846  -5.0143  -4.9628  -4.8993
    -4.8135  -4.7569  -4.7310  -4.6488  -4.5868  -4.5689  -4.5064  -4.4972
    -4.4609  -4.4334  -4.4050  -4.3814  -4.3093  -4.2806  -4.2180  -4.1467
    -4.0924  -4.0208  -4.0056  -3.9276  -3.8728  -3.8586  -3.8245  -3.7621
    -3.7487  -3.7229  -3.6613  -3.6462  -3.6281  -3.5527  -3.5307  -3.4533
    -3.4453  -3.4243  -3.3408  -3.2813  -3.2225  -3.1578  -3.1349  -3.1075
    -3.0710  -2.9965  -2.9749  -2.9027  -2.8273  -2.7564  -2.7159  -2.7051
    -2.6772  -2.6229  -2.6108  -2.5620  -2.5290  -2.4949  -2.4809  -2.4360
    -2.4196  -2.3658  -2.3554  -2.3241  -2.2865  -2.2157  -2.1986  -2.1496
    -2.1251  -2.1097  -2.0646  -2.0142  -1.9953  -1.8952  -1.8454  -1.6532
    -1.5356  -1.4512  -1.3829  -1.2967  -1.2798  -1.2255  -1.1688  -1.1323
    -1.0934  -1.0587  -1.0163  -0.9858  -0.8350  -0.8212  -0.7687  -0.7223
    -0.6350  -0.6108   0.6722   0.8625   1.0456   1.0802   1.1474   1.1820
     1.2050   1.2402   1.2688   1.2960   1.3147   1.3453   1.3659   1.4069
     1.4358   1.4500   1.4739   1.4903   1.5149   1.5271   1.5591   1.5632
     1.5979   1.6197   1.6769   1.6842   1.7130   1.7515   1.7706   1.7962
     1.8053

          k =-0.1667 0.4811 0.0000 (287831 PWs)   bands (ev):

   -73.4866 -73.3421 -56.1731 -56.1620 -56.1299 -56.1271 -56.1194 -56.1174
   -56.1141 -56.1084 -56.1066 -56.0866 -56.0725 -56.0660 -56.0647 -56.0534
   -56.0452 -56.0220 -45.2770 -44.9388 -44.8585 -44.8518 -44.7903 -44.7408
   -32.3700 -32.3626 -32.3476 -32.3291 -32.3258 -32.3179 -32.3095 -32.2942
   -32.2898 -32.2850 -32.2756 -32.2634 -32.2593 -32.2478 -32.2300 -32.2261
   -32.2200 -32.2123 -32.2066 -32.2024 -32.1942 -32.1907 -32.1866 -32.1831
   -32.1777 -32.1751 -32.1684 -32.1648 -32.1605 -32.1523 -32.1460 -32.1425
   -32.1343 -32.1325 -32.1306 -32.1253 -32.1220 -32.1150 -32.1106 -32.1041
   -32.1017 -32.0969 -32.0895 -32.0839 -32.0736 -32.0543 -32.0497 -32.0355
   -15.9907 -15.0285 -14.8273 -14.6588 -14.5144 -14.3367 -14.1543 -14.0942
   -13.9511 -13.8426 -13.7347 -13.7029 -13.6656 -13.6101 -13.5749 -13.5397
   -13.4743 -13.4391 -13.4174 -13.3769 -13.3491 -13.3290 -13.2841 -13.2603
   -13.2433 -13.2389 -13.2085 -13.1770 -13.1743 -13.1187 -13.0960 -13.0678
    -7.8582  -7.4486  -7.1342  -6.7294  -6.4302  -6.3918  -6.2912  -6.1511
    -6.0800  -5.9980  -5.9440  -5.8410  -5.8057  -5.7459  -5.7101  -5.6154
    -5.5961  -5.5390  -5.5186  -5.4510  -5.4001  -5.3677  -5.3486  -5.2999
    -5.2614  -5.1861  -5.1730  -5.1293  -5.1101  -5.0074  -4.9627  -4.8725
    -4.7923  -4.7487  -4.6840  -4.6326  -4.6085  -4.5760  -4.5539  -4.5245
    -4.4820  -4.4742  -4.4253  -4.3983  -4.3555  -4.3119  -4.2471  -4.1536
    -4.1120  -4.0575  -3.9705  -3.8853  -3.8431  -3.8034  -3.7626  -3.7450
    -3.7009  -3.6822  -3.6373  -3.6261  -3.5703  -3.5451  -3.4888  -3.4593
    -3.4160  -3.3689  -3.3444  -3.2950  -3.2655  -3.2055  -3.1833  -3.1297
    -3.1102  -2.9493  -2.8293  -2.7845  -2.7701  -2.7447  -2.7057  -2.6878
    -2.6663  -2.6402  -2.6261  -2.6039  -2.5585  -2.5393  -2.5027  -2.4784
    -2.4540  -2.4281  -2.3909  -2.3601  -2.3282  -2.2910  -2.2339  -2.1893
    -2.1471  -2.1255  -2.0779  -2.0204  -1.9552  -1.9093  -1.7670  -1.6359
    -1.5787  -1.4042  -1.3955  -1.3031  -1.2472  -1.2248  -1.1907  -1.1551
    -1.0937  -1.0619  -0.9936  -0.9194  -0.8462  -0.7830  -0.7590  -0.6455
    -0.6161  -0.5518   0.6592   0.8198   0.9908   1.0060   1.0986   1.1658
     1.1799   1.2171   1.2842   1.3020   1.3318   1.3527   1.3703   1.3946
     1.4219   1.4324   1.4675   1.4904   1.5008   1.5300   1.5440   1.5771
     1.5947   1.6108   1.6265   1.6610   1.6787   1.6942   1.7130   1.7377
     1.7600

          k =-0.3333 0.3849 0.0000 (287831 PWs)   bands (ev):

   -73.4866 -73.3421 -56.1731 -56.1620 -56.1299 -56.1272 -56.1193 -56.1175
   -56.1141 -56.1084 -56.1066 -56.0866 -56.0724 -56.0662 -56.0646 -56.0534
   -56.0452 -56.0220 -45.2770 -44.9388 -44.8585 -44.8518 -44.7903 -44.7408
   -32.3713 -32.3635 -32.3435 -32.3295 -32.3267 -32.3161 -32.3081 -32.2991
   -32.2867 -32.2856 -32.2762 -32.2683 -32.2549 -32.2481 -32.2301 -32.2255
   -32.2189 -32.2141 -32.2074 -32.2040 -32.1961 -32.1910 -32.1865 -32.1811
   -32.1773 -32.1736 -32.1674 -32.1634 -32.1605 -32.1531 -32.1487 -32.1408
   -32.1349 -32.1333 -32.1302 -32.1241 -32.1207 -32.1134 -32.1079 -32.1043
   -32.1028 -32.0952 -32.0925 -32.0865 -32.0743 -32.0571 -32.0496 -32.0327
   -15.9906 -15.0241 -14.8499 -14.6352 -14.5020 -14.3324 -14.2092 -14.0790
   -13.9366 -13.8385 -13.7361 -13.7167 -13.6488 -13.6039 -13.5700 -13.5347
   -13.4871 -13.4559 -13.4029 -13.3806 -13.3546 -13.3155 -13.2841 -13.2803
   -13.2467 -13.2283 -13.2066 -13.1737 -13.1685 -13.1324 -13.0896 -13.0665
    -7.8563  -7.4497  -7.1358  -6.7363  -6.4347  -6.3935  -6.3099  -6.1218
    -6.0504  -6.0314  -5.9597  -5.8388  -5.7827  -5.7313  -5.6694  -5.6269
    -5.5893  -5.5594  -5.5150  -5.4633  -5.4106  -5.3899  -5.3200  -5.3018
    -5.2791  -5.2064  -5.1537  -5.1217  -5.0825  -5.0395  -4.9354  -4.8834
    -4.7844  -4.7776  -4.6926  -4.6555  -4.6213  -4.5739  -4.5484  -4.5009
    -4.4918  -4.4730  -4.4467  -4.4133  -4.3647  -4.2933  -4.2124  -4.1630
    -4.1194  -4.0209  -3.9453  -3.8933  -3.8551  -3.7998  -3.7702  -3.7334
    -3.6917  -3.6789  -3.6207  -3.6031  -3.5648  -3.5319  -3.5054  -3.4721
    -3.4434  -3.3870  -3.3413  -3.3149  -3.2343  -3.2131  -3.1584  -3.1348
    -3.1144  -2.9695  -2.8132  -2.7837  -2.7706  -2.7596  -2.7271  -2.6912
    -2.6672  -2.6425  -2.6153  -2.5862  -2.5716  -2.5447  -2.5217  -2.4886
    -2.4617  -2.4149  -2.3951  -2.3621  -2.3443  -2.2991  -2.2432  -2.1963
    -2.1538  -2.1172  -2.0667  -1.9910  -1.9399  -1.8907  -1.7787  -1.6449
    -1.5507  -1.4292  -1.3862  -1.2984  -1.2785  -1.2077  -1.1736  -1.1569
    -1.0861  -1.0743  -1.0115  -0.8946  -0.8363  -0.7924  -0.7367  -0.6602
    -0.6364  -0.5439   0.6589   0.8368   1.0008   1.0072   1.0760   1.1500
     1.1843   1.2197   1.2820   1.3125   1.3374   1.3573   1.3693   1.3941
     1.4255   1.4362   1.4681   1.4892   1.5061   1.5293   1.5517   1.5786
     1.5957   1.6114   1.6274   1.6568   1.6804   1.7026   1.7115   1.7243
     1.7614

          k = 0.5000 0.0962 0.0000 (287831 PWs)   bands (ev):

   -73.4866 -73.3421 -56.1731 -56.1620 -56.1298 -56.1272 -56.1195 -56.1174
   -56.1140 -56.1084 -56.1065 -56.0866 -56.0725 -56.0660 -56.0647 -56.0534
   -56.0452 -56.0220 -45.2770 -44.9388 -44.8585 -44.8518 -44.7903 -44.7408
   -32.3710 -32.3624 -32.3461 -32.3303 -32.3230 -32.3167 -32.3112 -32.3010
   -32.2865 -32.2815 -32.2735 -32.2678 -32.2569 -32.2510 -32.2367 -32.2246
   -32.2129 -32.2110 -32.2078 -32.2002 -32.1967 -32.1916 -32.1885 -32.1810
   -32.1798 -32.1744 -32.1699 -32.1622 -32.1596 -32.1508 -32.1478 -32.1402
   -32.1363 -32.1326 -32.1292 -32.1260 -32.1200 -32.1133 -32.1110 -32.1047
   -32.1016 -32.0980 -32.0930 -32.0842 -32.0743 -32.0558 -32.0479 -32.0344
   -15.9905 -15.0337 -14.8176 -14.6662 -14.5077 -14.3220 -14.1927 -14.0813
   -13.9674 -13.8163 -13.7460 -13.6760 -13.6646 -13.6102 -13.5769 -13.5319
   -13.5091 -13.4415 -13.4164 -13.3686 -13.3480 -13.3222 -13.2906 -13.2650
   -13.2485 -13.2317 -13.2120 -13.1789 -13.1647 -13.1240 -13.0921 -13.0669
    -7.8594  -7.4496  -7.1328  -6.7345  -6.4404  -6.4022  -6.2752  -6.1623
    -6.0522  -6.0151  -5.9488  -5.8284  -5.7778  -5.7368  -5.7033  -5.6260
    -5.5819  -5.5225  -5.5010  -5.4514  -5.4210  -5.3950  -5.3648  -5.3310
    -5.2563  -5.2031  -5.1487  -5.1039  -5.0799  -5.0080  -4.9506  -4.9108
    -4.7847  -4.7468  -4.7050  -4.6737  -4.6377  -4.5701  -4.5556  -4.5275
    -4.4997  -4.4587  -4.4421  -4.4228  -4.3433  -4.2901  -4.2302  -4.1805
    -4.0985  -4.0464  -3.9411  -3.8728  -3.8268  -3.8090  -3.7759  -3.7229
    -3.6838  -3.6583  -3.6223  -3.6012  -3.5762  -3.5486  -3.5063  -3.4754
    -3.4103  -3.3890  -3.3454  -3.3264  -3.2622  -3.2180  -3.1538  -3.1097
    -3.0477  -3.0059  -2.8300  -2.8152  -2.7683  -2.7523  -2.7262  -2.6983
    -2.6724  -2.6547  -2.6145  -2.5896  -2.5702  -2.5283  -2.5170  -2.4690
    -2.4649  -2.4259  -2.4075  -2.3596  -2.3352  -2.2878  -2.2163  -2.1772
    -2.1653  -2.1120  -2.0741  -1.9982  -1.9402  -1.9176  -1.8106  -1.6375
    -1.5283  -1.4428  -1.3820  -1.3231  -1.2556  -1.2148  -1.1759  -1.1379
    -1.0915  -1.0445  -0.9677  -0.9424  -0.8638  -0.7986  -0.7302  -0.6761
    -0.6026  -0.5569   0.6470   0.8517   0.9909   1.0047   1.1013   1.1480
     1.1961   1.2267   1.2739   1.3047   1.3343   1.3541   1.3909   1.3990
     1.4073   1.4374   1.4575   1.4851   1.5112   1.5388   1.5547   1.5670
     1.5942   1.6183   1.6300   1.6485   1.6716   1.6880   1.7114   1.7340
     1.7543

          k =-0.3333-0.3849 0.0000 (287831 PWs)   bands (ev):

   -73.4866 -73.3421 -56.1731 -56.1620 -56.1298 -56.1272 -56.1196 -56.1173
   -56.1140 -56.1084 -56.1065 -56.0866 -56.0725 -56.0659 -56.0648 -56.0534
   -56.0452 -56.0220 -45.2770 -44.9388 -44.8585 -44.8518 -44.7903 -44.7408
   -32.3706 -32.3611 -32.3486 -32.3291 -32.3250 -32.3166 -32.3116 -32.2971
   -32.2887 -32.2810 -32.2752 -32.2686 -32.2568 -32.2459 -32.2360 -32.2275
   -32.2133 -32.2107 -32.2100 -32.1995 -32.1946 -32.1917 -32.1884 -32.1814
   -32.1805 -32.1747 -32.1686 -32.1626 -32.1594 -32.1527 -32.1452 -32.1405
   -32.1361 -32.1325 -32.1299 -32.1253 -32.1225 -32.1150 -32.1095 -32.1067
   -32.1016 -32.0982 -32.0915 -32.0818 -32.0741 -32.0551 -32.0475 -32.0359
   -15.9905 -15.0355 -14.8021 -14.6839 -14.5115 -14.3216 -14.1782 -14.0842
   -13.9600 -13.8243 -13.7473 -13.7038 -13.6489 -13.6100 -13.5684 -13.5314
   -13.4987 -13.4620 -13.4004 -13.3777 -13.3456 -13.3211 -13.2890 -13.2626
   -13.2532 -13.2308 -13.2097 -13.1808 -13.1663 -13.1209 -13.0931 -13.0680
    -7.8603  -7.4491  -7.1320  -6.7307  -6.4397  -6.3984  -6.2639  -6.1743
    -6.0668  -6.0146  -5.9468  -5.8062  -5.7788  -5.7549  -5.7170  -5.6258
    -5.5724  -5.5550  -5.4999  -5.4402  -5.4173  -5.3805  -5.3491  -5.3182
    -5.2643  -5.2271  -5.1623  -5.0879  -5.0679  -5.0197  -4.9632  -4.8931
    -4.8001  -4.7461  -4.6880  -4.6557  -4.6249  -4.5843  -4.5556  -4.5089
    -4.4913  -4.4767  -4.4388  -4.4135  -4.3598  -4.2943  -4.2440  -4.1804
    -4.1210  -4.0232  -3.9368  -3.8857  -3.8254  -3.8057  -3.7649  -3.7268
    -3.7106  -3.6922  -3.6153  -3.5949  -3.5582  -3.5421  -3.4964  -3.4780
    -3.4328  -3.4026  -3.3333  -3.3038  -3.2430  -3.2096  -3.1566  -3.1320
    -3.1048  -2.9524  -2.8209  -2.7855  -2.7655  -2.7554  -2.7287  -2.7078
    -2.6814  -2.6622  -2.6241  -2.5999  -2.5496  -2.5302  -2.5018  -2.4800
    -2.4375  -2.4170  -2.4112  -2.3621  -2.3379  -2.2881  -2.2345  -2.1987
    -2.1656  -2.0932  -2.0730  -1.9943  -1.9438  -1.9123  -1.7970  -1.6531
    -1.5605  -1.4218  -1.3846  -1.3129  -1.2716  -1.2167  -1.1610  -1.1377
    -1.0896  -1.0469  -0.9823  -0.9122  -0.8750  -0.8282  -0.7203  -0.6684
    -0.5963  -0.5603   0.6449   0.8478   0.9880   1.0061   1.1054   1.1537
     1.1930   1.2210   1.2721   1.3021   1.3266   1.3532   1.3769   1.4073
     1.4248   1.4395   1.4517   1.4915   1.5046   1.5337   1.5597   1.5813
     1.5955   1.6105   1.6251   1.6555   1.6698   1.6903   1.7054   1.7320
     1.7573

          k = 0.5000-0.0962 0.0000 (287831 PWs)   bands (ev):

   -73.4866 -73.3421 -56.1731 -56.1620 -56.1299 -56.1272 -56.1193 -56.1175
   -56.1141 -56.1084 -56.1066 -56.0866 -56.0724 -56.0662 -56.0646 -56.0534
   -56.0452 -56.0220 -45.2770 -44.9388 -44.8585 -44.8518 -44.7903 -44.7408
   -32.3716 -32.3635 -32.3432 -32.3308 -32.3228 -32.3161 -32.3121 -32.2996
   -32.2861 -32.2841 -32.2751 -32.2672 -32.2549 -32.2519 -32.2344 -32.2233
   -32.2176 -32.2116 -32.2069 -32.2031 -32.1968 -32.1909 -32.1867 -32.1810
   -32.1780 -32.1736 -32.1687 -32.1638 -32.1596 -32.1533 -32.1484 -32.1406
   -32.1350 -32.1327 -32.1305 -32.1227 -32.1209 -32.1124 -32.1089 -32.1033
   -32.1022 -32.0972 -32.0936 -32.0866 -32.0745 -32.0573 -32.0491 -32.0324
   -15.9906 -15.0261 -14.8463 -14.6401 -14.4938 -14.3336 -14.2163 -14.0722
   -13.9567 -13.8151 -13.7559 -13.6850 -13.6483 -13.6232 -13.5632 -13.5396
   -13.4994 -13.4399 -13.4093 -13.3817 -13.3483 -13.3255 -13.2871 -13.2622
   -13.2560 -13.2299 -13.2077 -13.1739 -13.1659 -13.1333 -13.0889 -13.0662
    -7.8567  -7.4500  -7.1354  -6.7385  -6.4352  -6.4012  -6.3017  -6.1291
    -6.0499  -6.0187  -5.9572  -5.8492  -5.7823  -5.7207  -5.6866  -5.6101
    -5.5727  -5.5462  -5.5003  -5.4707  -5.4311  -5.3964  -5.3541  -5.3190
    -5.2594  -5.1946  -5.1484  -5.1111  -5.0702  -5.0348  -4.9503  -4.9048
    -4.7942  -4.7538  -4.7022  -4.6440  -4.6341  -4.5820  -4.5501  -4.5233
[...]
   -15.7207 -14.8981 -14.7501 -14.5717 -14.4268 -14.2710 -14.1383 -14.0464
   -13.9367 -13.8866 -13.7862 -13.7228 -13.6366 -13.5916 -13.5604 -13.4928
   -13.4783 -13.4330 -13.3904 -13.3808 -13.3482 -13.3187 -13.2851 -13.2703
   -13.2496 -13.2153 -13.2014 -13.1902 -13.1806 -13.1347 -13.1034 -13.0839
    -6.9585  -6.6650  -6.4683  -6.3020  -6.1192  -5.9868  -5.9076  -5.8581
    -5.8370  -5.7739  -5.7422  -5.6988  -5.6298  -5.5999  -5.5599  -5.5341
    -5.5044  -5.4414  -5.4149  -5.3859  -5.3338  -5.3076  -5.2419  -5.2012
    -5.1636  -5.0905  -5.0475  -4.9282  -4.8658  -4.8094  -4.7514  -4.6894
    -4.6314  -4.6162  -4.6048  -4.5832  -4.5442  -4.5097  -4.5028  -4.4475
    -4.3985  -4.3499  -4.3024  -4.2319  -4.1954  -4.1191  -4.0409  -3.9795
    -3.9351  -3.8555  -3.8424  -3.7653  -3.7329  -3.6998  -3.6610  -3.6315
    -3.5840  -3.5585  -3.5260  -3.4705  -3.4140  -3.3587  -3.2807  -3.2253
    -3.1933  -3.1837  -3.1183  -3.1018  -3.0477  -3.0086  -2.9319  -2.8374
    -2.7938  -2.7706  -2.7493  -2.7057  -2.6702  -2.6383  -2.6109  -2.5749
    -2.5464  -2.5328  -2.4914  -2.4449  -2.4112  -2.3565  -2.3462  -2.3209
    -2.2484  -2.2230  -2.1723  -2.1362  -2.1180  -2.0951  -2.0516  -1.9514
    -1.8578  -1.7450  -1.5854  -1.5474  -1.4838  -1.4338  -1.3978  -1.3520
    -1.3040  -1.2332  -1.1871  -1.0970  -1.0269  -1.0087  -0.8716  -0.7998
    -0.1380   0.1481   0.5197   0.6806   0.7506   0.8092   0.8500   0.9028
     0.9835   1.0082   1.0383   1.0926   1.1328   1.1702   1.2118   1.2578
     1.2751   1.3187   1.3361   1.3578   1.3767   1.4073   1.4285   1.4675
     1.4799   1.5069   1.5555   1.5818   1.6008   1.6216   1.6373   1.6518
     1.6674   1.7145   1.7395   1.7507   1.7895   1.8001   1.8507   1.8778
     1.9123

          k = 0.3333-0.0000 0.0000 (287748 PWs)   bands (ev):

   -70.2795 -69.5247 -56.3583 -56.2908 -56.2674 -56.2300 -56.2040 -56.1927
   -56.1839 -56.1650 -56.1582 -56.1537 -56.1496 -56.1278 -56.1137 -56.1092
   -56.0591 -56.0077 -42.4061 -41.8746 -41.3384 -41.1693 -41.0574 -40.8580
   -32.5468 -32.5079 -32.4807 -32.4563 -32.4426 -32.4368 -32.4226 -32.4117
   -32.4035 -32.3992 -32.3924 -32.3824 -32.3692 -32.3579 -32.3426 -32.3374
   -32.3301 -32.3099 -32.3044 -32.2984 -32.2874 -32.2808 -32.2701 -32.2682
   -32.2613 -32.2572 -32.2483 -32.2364 -32.2313 -32.2231 -32.2200 -32.2178
   -32.2152 -32.2106 -32.1920 -32.1878 -32.1785 -32.1762 -32.1733 -32.1698
   -32.1669 -32.1560 -32.1434 -32.1329 -32.1211 -32.0813 -32.0711 -32.0624
   -15.7205 -14.9070 -14.7386 -14.5704 -14.4162 -14.2911 -14.1341 -14.0461
   -13.9701 -13.8527 -13.7808 -13.7182 -13.6269 -13.6069 -13.5639 -13.4971
   -13.4662 -13.4324 -13.4073 -13.3753 -13.3496 -13.3201 -13.2891 -13.2671
   -13.2327 -13.2296 -13.2021 -13.1884 -13.1781 -13.1381 -13.1021 -13.0823
    -6.9508  -6.6805  -6.4614  -6.2994  -6.1411  -6.0071  -5.9205  -5.8680
    -5.8067  -5.7760  -5.7238  -5.6863  -5.6296  -5.5937  -5.5290  -5.5057
    -5.4740  -5.4575  -5.4133  -5.3944  -5.3544  -5.2978  -5.2648  -5.2440
    -5.1741  -5.0777  -5.0116  -4.9189  -4.8806  -4.8172  -4.7412  -4.6973
    -4.6332  -4.6203  -4.6051  -4.5839  -4.5487  -4.5267  -4.4842  -4.4641
    -4.4426  -4.3445  -4.2746  -4.2497  -4.1821  -4.1079  -4.0312  -3.9749
    -3.9456  -3.8801  -3.8244  -3.7671  -3.7471  -3.6799  -3.6685  -3.6551
    -3.5738  -3.5645  -3.5312  -3.4335  -3.3855  -3.3311  -3.2903  -3.2714
    -3.1976  -3.1853  -3.1158  -3.0918  -3.0212  -3.0064  -2.9241  -2.8576
    -2.8093  -2.7722  -2.7240  -2.7102  -2.6906  -2.6494  -2.6210  -2.5855
    -2.5640  -2.5395  -2.4703  -2.4400  -2.3984  -2.3669  -2.3579  -2.2864
    -2.2514  -2.2211  -2.1620  -2.1193  -2.1073  -2.1012  -2.0434  -1.9756
    -1.8706  -1.7150  -1.5959  -1.5293  -1.5222  -1.4478  -1.3876  -1.3559
    -1.2816  -1.2638  -1.1743  -1.1031  -1.0451  -0.9741  -0.8688  -0.8041
    -0.1399   0.1554   0.5198   0.7059   0.7292   0.7926   0.8618   0.9204
     0.9519   1.0020   1.0324   1.0693   1.1604   1.1872   1.2139   1.2499
     1.2932   1.3079   1.3344   1.3568   1.3818   1.3955   1.4321   1.4674
     1.4945   1.5068   1.5398   1.5600   1.5896   1.6086   1.6245   1.6554
     1.6872   1.7094   1.7300   1.7464   1.7958   1.8235   1.8641   1.8924
     1.9088

          k =-0.1667 0.4811 0.0000 (287831 PWs)   bands (ev):

   -70.2795 -69.5247 -56.3583 -56.2908 -56.2674 -56.2300 -56.2040 -56.1927
   -56.1839 -56.1650 -56.1582 -56.1537 -56.1496 -56.1278 -56.1137 -56.1092
   -56.0591 -56.0077 -42.4061 -41.8746 -41.3384 -41.1693 -41.0574 -40.8580
   -32.5463 -32.5072 -32.4812 -32.4580 -32.4405 -32.4319 -32.4183 -32.4124
   -32.4083 -32.3984 -32.3925 -32.3826 -32.3736 -32.3612 -32.3459 -32.3342
   -32.3287 -32.3180 -32.3045 -32.3011 -32.2889 -32.2854 -32.2741 -32.2652
   -32.2620 -32.2558 -32.2357 -32.2341 -32.2270 -32.2229 -32.2192 -32.2153
   -32.2111 -32.2052 -32.1920 -32.1891 -32.1794 -32.1762 -32.1719 -32.1688
   -32.1669 -32.1619 -32.1503 -32.1329 -32.1228 -32.0809 -32.0720 -32.0614
   -15.7194 -14.8904 -14.7549 -14.5945 -14.4350 -14.2750 -14.1158 -14.0537
   -13.9371 -13.8356 -13.7351 -13.7046 -13.6604 -13.6082 -13.5722 -13.5418
   -13.4752 -13.4395 -13.4171 -13.3765 -13.3466 -13.3290 -13.2855 -13.2628
   -13.2452 -13.2410 -13.2103 -13.1774 -13.1750 -13.1215 -13.0968 -13.0690
    -6.9435  -6.6283  -6.4306  -6.2273  -6.1005  -5.9961  -5.9479  -5.8982
    -5.8557  -5.8223  -5.7841  -5.7413  -5.6691  -5.6477  -5.6062  -5.5275
    -5.5124  -5.4517  -5.4157  -5.3857  -5.3300  -5.2608  -5.2060  -5.1721
    -5.1165  -5.0765  -5.0502  -4.9494  -4.8744  -4.7734  -4.7525  -4.7061
    -4.6782  -4.6490  -4.6132  -4.5967  -4.5718  -4.5655  -4.5149  -4.4874
    -4.4347  -4.3305  -4.2941  -4.2213  -4.1601  -4.0732  -3.9548  -3.9376
    -3.8559  -3.7962  -3.7594  -3.7343  -3.7303  -3.6515  -3.6291  -3.6054
    -3.5846  -3.5521  -3.5155  -3.4816  -3.4481  -3.3653  -3.3320  -3.3080
    -3.2426  -3.1747  -3.1045  -3.0764  -2.9425  -2.9088  -2.8571  -2.8393
    -2.7785  -2.7694  -2.7539  -2.7274  -2.7125  -2.6663  -2.6589  -2.6364
    -2.6054  -2.5512  -2.5335  -2.5084  -2.4635  -2.4379  -2.4026  -2.3727
    -2.2986  -2.2552  -2.1782  -2.1569  -2.1086  -2.0677  -1.9720  -1.8868
    -1.8374  -1.7372  -1.5713  -1.5468  -1.4978  -1.4426  -1.3944  -1.3376
    -1.3112  -1.2158  -1.1247  -1.0501  -1.0052  -0.9505  -0.8263  -0.7777
    -0.1348   0.1409   0.5042   0.6590   0.7429   0.7852   0.8098   0.8839
     0.9401   1.0062   1.0409   1.0906   1.1190   1.1560   1.1754   1.2478
     1.2732   1.3053   1.3419   1.3573   1.3984   1.4227   1.4408   1.4682
     1.4961   1.5050   1.5195   1.5382   1.5516   1.5783   1.5909   1.6192
     1.6320   1.6825   1.7159   1.7489   1.7709   1.8104   1.8577   1.8847
     1.9428

          k =-0.3333 0.3849 0.0000 (287831 PWs)   bands (ev):

   -70.2795 -69.5247 -56.3583 -56.2908 -56.2674 -56.2300 -56.2040 -56.1927
   -56.1839 -56.1650 -56.1582 -56.1537 -56.1496 -56.1278 -56.1137 -56.1092
   -56.0591 -56.0077 -42.4061 -41.8746 -41.3384 -41.1693 -41.0574 -40.8580
   -32.5467 -32.5066 -32.4801 -32.4564 -32.4416 -32.4313 -32.4209 -32.4167
   -32.4044 -32.3984 -32.3957 -32.3844 -32.3712 -32.3603 -32.3422 -32.3355
   -32.3288 -32.3185 -32.3061 -32.3004 -32.2881 -32.2808 -32.2739 -32.2636
   -32.2616 -32.2529 -32.2389 -32.2367 -32.2279 -32.2244 -32.2190 -32.2163
   -32.2120 -32.2062 -32.1929 -32.1887 -32.1805 -32.1764 -32.1732 -32.1717
   -32.1669 -32.1564 -32.1477 -32.1329 -32.1217 -32.0812 -32.0713 -32.0628
   -15.7192 -14.8828 -14.7879 -14.5440 -14.4436 -14.2676 -14.1741 -14.0401
   -13.9174 -13.8339 -13.7370 -13.7157 -13.6477 -13.6001 -13.5706 -13.5329
   -13.4856 -13.4576 -13.4029 -13.3808 -13.3538 -13.3139 -13.2849 -13.2828
   -13.2480 -13.2303 -13.2089 -13.1738 -13.1699 -13.1355 -13.0908 -13.0677
    -6.9259  -6.6413  -6.4329  -6.2235  -6.1742  -6.0352  -5.9235  -5.9062
    -5.8273  -5.7931  -5.7844  -5.7096  -5.6725  -5.6133  -5.5752  -5.5472
    -5.5135  -5.4503  -5.4146  -5.3766  -5.3400  -5.2737  -5.2080  -5.1845
    -5.1575  -5.0524  -4.9818  -4.9450  -4.8892  -4.7966  -4.7383  -4.7140
    -4.6785  -4.6567  -4.6241  -4.6073  -4.5754  -4.5560  -4.5294  -4.4837
    -4.4272  -4.3372  -4.3210  -4.2472  -4.1754  -4.0501  -3.9844  -3.8916
    -3.8478  -3.8036  -3.7725  -3.7230  -3.6999  -3.6629  -3.6558  -3.6230
    -3.5720  -3.5261  -3.4969  -3.4683  -3.4293  -3.3949  -3.3454  -3.3336
    -3.2137  -3.1540  -3.1230  -3.0649  -2.9282  -2.9004  -2.8639  -2.8409
    -2.8018  -2.7650  -2.7562  -2.7362  -2.7029  -2.6789  -2.6526  -2.6273
    -2.6023  -2.5895  -2.5342  -2.5030  -2.4498  -2.4339  -2.3919  -2.3551
    -2.3034  -2.2489  -2.2002  -2.1454  -2.1050  -2.0788  -1.9731  -1.9007
    -1.8567  -1.7067  -1.5883  -1.5390  -1.4655  -1.4489  -1.3982  -1.3559
    -1.3075  -1.2161  -1.1537  -1.0485  -0.9797  -0.9530  -0.8306  -0.7795
    -0.1365   0.1473   0.5038   0.6615   0.7489   0.7880   0.8250   0.8778
     0.9585   0.9723   1.0068   1.0605   1.1219   1.1684   1.2225   1.2400
     1.2772   1.3147   1.3500   1.3615   1.3845   1.4366   1.4445   1.4685
     1.4859   1.5120   1.5205   1.5292   1.5508   1.5698   1.5950   1.6107
     1.6445   1.6806   1.6956   1.7349   1.7649   1.8125   1.8467   1.8868
     1.9091

          k = 0.5000 0.0962 0.0000 (287831 PWs)   bands (ev):

   -70.2795 -69.5247 -56.3583 -56.2908 -56.2674 -56.2300 -56.2040 -56.1927
   -56.1839 -56.1650 -56.1582 -56.1537 -56.1496 -56.1278 -56.1137 -56.1092
   -56.0591 -56.0077 -42.4061 -41.8746 -41.3384 -41.1693 -41.0574 -40.8580
   -32.5462 -32.5070 -32.4798 -32.4561 -32.4414 -32.4336 -32.4244 -32.4146
   -32.4085 -32.3980 -32.3923 -32.3836 -32.3674 -32.3598 -32.3445 -32.3359
   -32.3297 -32.3140 -32.3041 -32.2984 -32.2888 -32.2815 -32.2759 -32.2651
   -32.2601 -32.2547 -32.2403 -32.2360 -32.2309 -32.2228 -32.2197 -32.2176
   -32.2143 -32.2084 -32.1922 -32.1893 -32.1787 -32.1757 -32.1743 -32.1698
   -32.1669 -32.1574 -32.1427 -32.1329 -32.1212 -32.0819 -32.0722 -32.0629
   -15.7191 -14.9044 -14.7396 -14.5808 -14.4432 -14.2788 -14.1296 -14.0530
   -13.9516 -13.8085 -13.7451 -13.6742 -13.6645 -13.6080 -13.5766 -13.5315
   -13.5086 -13.4413 -13.4149 -13.3680 -13.3464 -13.3245 -13.2929 -13.2665
   -13.2496 -13.2337 -13.2129 -13.1791 -13.1655 -13.1281 -13.0934 -13.0680
    -6.9319  -6.6512  -6.4236  -6.2111  -6.1531  -6.0318  -5.9436  -5.9210
    -5.8225  -5.7957  -5.7551  -5.7240  -5.6670  -5.6467  -5.5653  -5.5335
    -5.4858  -5.4405  -5.4172  -5.3887  -5.3401  -5.2729  -5.2582  -5.1834
    -5.1092  -5.0902  -5.0062  -4.9340  -4.8721  -4.8457  -4.7447  -4.6956
    -4.6590  -4.6301  -4.6171  -4.6020  -4.5787  -4.5592  -4.5311  -4.4831
    -4.4330  -4.3524  -4.3191  -4.2818  -4.1004  -4.0401  -3.9979  -3.9322
    -3.8413  -3.8055  -3.7707  -3.7259  -3.7072  -3.6782  -3.6456  -3.6039
    -3.5794  -3.5342  -3.5050  -3.4462  -3.4426  -3.3867  -3.3555  -3.2970
    -3.2232  -3.1631  -3.1068  -3.0496  -2.9563  -2.9054  -2.8825  -2.8310
    -2.7981  -2.7785  -2.7352  -2.7315  -2.6921  -2.6878  -2.6484  -2.6404
    -2.6051  -2.5820  -2.5411  -2.5196  -2.4648  -2.4481  -2.4009  -2.3597
    -2.2723  -2.2368  -2.1689  -2.1598  -2.1087  -2.0625  -1.9588  -1.8912
    -1.8469  -1.7441  -1.5703  -1.5378  -1.4845  -1.4562  -1.4173  -1.3591
    -1.3013  -1.2022  -1.1365  -1.0763  -0.9680  -0.9339  -0.8422  -0.7728
    -0.1375   0.1510   0.5032   0.6941   0.7204   0.7784   0.8165   0.8935
     0.9293   0.9734   1.0169   1.0481   1.1345   1.1715   1.2146   1.2485
     1.2890   1.3191   1.3402   1.3507   1.3843   1.4121   1.4275   1.4616
     1.4716   1.5078   1.5194   1.5379   1.5574   1.5852   1.5958   1.6361
     1.6531   1.6868   1.6988   1.7247   1.7684   1.8198   1.8422   1.8944
     1.9225

          k =-0.3333-0.3849 0.0000 (287831 PWs)   bands (ev):

   -70.2795 -69.5247 -56.3583 -56.2908 -56.2674 -56.2300 -56.2040 -56.1927
   -56.1839 -56.1650 -56.1582 -56.1537 -56.1496 -56.1278 -56.1137 -56.1092
   -56.0591 -56.0077 -42.4061 -41.8746 -41.3384 -41.1693 -41.0574 -40.8580
   -32.5460 -32.5073 -32.4803 -32.4571 -32.4404 -32.4343 -32.4222 -32.4141
   -32.4084 -32.3977 -32.3931 -32.3825 -32.3674 -32.3606 -32.3449 -32.3352
   -32.3306 -32.3161 -32.3014 -32.2977 -32.2910 -32.2836 -32.2759 -32.2641
   -32.2605 -32.2574 -32.2378 -32.2357 -32.2296 -32.2221 -32.2195 -32.2171
   -32.2141 -32.2083 -32.1922 -32.1900 -32.1781 -32.1757 -32.1709 -32.1697
   -32.1668 -32.1601 -32.1442 -32.1329 -32.1218 -32.0817 -32.0726 -32.0623
   -15.7192 -14.9064 -14.7168 -14.6147 -14.4363 -14.2782 -14.1224 -14.0470
   -13.9446 -13.8173 -13.7491 -13.7041 -13.6464 -13.6090 -13.5673 -13.5299
   -13.4966 -13.4633 -13.3977 -13.3782 -13.3461 -13.3227 -13.2904 -13.2647
   -13.2541 -13.2324 -13.2110 -13.1812 -13.1669 -13.1246 -13.0943 -13.0691
    -6.9410  -6.6435  -6.4241  -6.2185  -6.0972  -6.0177  -5.9613  -5.9132
    -5.8871  -5.7770  -5.7490  -5.7127  -5.6919  -5.6428  -5.5744  -5.5213
    -5.5041  -5.4522  -5.4135  -5.3874  -5.3512  -5.2754  -5.2469  -5.1837
    -5.1218  -5.0671  -4.9844  -4.9655  -4.8950  -4.8003  -4.7368  -4.7001
    -4.6742  -4.6367  -4.6116  -4.6005  -4.5815  -4.5630  -4.5251  -4.4839
    -4.4322  -4.3476  -4.3058  -4.2611  -4.0925  -4.0734  -3.9994  -3.9129
    -3.8429  -3.7989  -3.7597  -3.7331  -3.6960  -3.6837  -3.6690  -3.6237
    -3.5797  -3.5097  -3.5017  -3.4696  -3.4439  -3.3918  -3.3637  -3.2710
    -3.2288  -3.1900  -3.0929  -3.0382  -2.9568  -2.8953  -2.8610  -2.8386
    -2.8003  -2.7862  -2.7502  -2.7287  -2.7098  -2.6858  -2.6518  -2.6331
    -2.6028  -2.5764  -2.5494  -2.5298  -2.4569  -2.4437  -2.4004  -2.3532
    -2.2767  -2.2335  -2.1707  -2.1518  -2.1109  -2.0654  -1.9601  -1.8862
    -1.8328  -1.7626  -1.5742  -1.5463  -1.4808  -1.4533  -1.4077  -1.3571
    -1.3012  -1.2054  -1.1382  -1.0606  -0.9715  -0.9471  -0.8386  -0.7702
    -0.1366   0.1480   0.5008   0.6801   0.7326   0.7799   0.8247   0.8826
     0.9351   0.9745   1.0243   1.0471   1.1255   1.1899   1.2142   1.2427
     1.2733   1.3065   1.3159   1.3546   1.4004   1.4269   1.4431   1.4657
     1.4783   1.4924   1.5160   1.5424   1.5638   1.5787   1.6016   1.6162
     1.6641   1.6955   1.7137   1.7239   1.7538   1.8002   1.8529   1.8874
     1.9189

          k = 0.5000-0.0962 0.0000 (287831 PWs)   bands (ev):

   -70.2795 -69.5247 -56.3583 -56.2908 -56.2674 -56.2300 -56.2040 -56.1927
   -56.1839 -56.1650 -56.1582 -56.1537 -56.1496 -56.1278 -56.1137 -56.1092
   -56.0591 -56.0077 -42.4061 -41.8746 -41.3384 -41.1693 -41.0574 -40.8580
   -32.5467 -32.5066 -32.4796 -32.4556 -32.4419 -32.4325 -32.4236 -32.4157
   -32.4053 -32.3995 -32.3943 -32.3839 -32.3701 -32.3588 -32.3436 -32.3367
   -32.3284 -32.3137 -32.3077 -32.3010 -32.2877 -32.2802 -32.2716 -32.2646
   -32.2599 -32.2555 -32.2409 -32.2360 -32.2292 -32.2242 -32.2192 -32.2168
   -32.2128 -32.2080 -32.1925 -32.1881 -32.1802 -32.1773 -32.1747 -32.1712
   -32.1669 -32.1552 -32.1450 -32.1329 -32.1211 -32.0816 -32.0714 -32.0633
   -15.7191 -14.8896 -14.7795 -14.5471 -14.4318 -14.2865 -14.1651 -14.0375
   -13.9415 -13.8051 -13.7568 -13.6851 -13.6463 -13.6210 -13.5633 -13.5388
   -13.4978 -13.4411 -13.4091 -13.3804 -13.3471 -13.3256 -13.2899 -13.2636
   -13.2565 -13.2311 -13.2100 -13.1743 -13.1669 -13.1370 -13.0903 -13.0674
    -6.9214  -6.6502  -6.4291  -6.2251  -6.1813  -6.0407  -5.9381  -5.8882
    -5.8404  -5.7784  -5.7696  -5.7107  -5.6902  -5.6228  -5.5623  -5.5317
    -5.4748  -5.4512  -5.4122  -5.3797  -5.3447  -5.2806  -5.2323  -5.1842
    -5.1687  -5.0593  -4.9574  -4.9246  -4.8976  -4.8390  -4.7359  -4.7220
    -4.6657  -4.6375  -4.6097  -4.6001  -4.5872  -4.5554  -4.5311  -4.4828
    -4.4447  -4.3656  -4.3069  -4.2559  -4.1601  -4.0413  -3.9913  -3.8840
    -3.8511  -3.8247  -3.7683  -3.7248  -3.6989  -3.6622  -3.6374  -3.6321
    -3.5681  -3.5378  -3.5161  -3.4497  -3.4193  -3.3860  -3.3656  -3.3037
    -3.2143  -3.1580  -3.1364  -3.0174  -2.9674  -2.9066  -2.8810  -2.8252
    -2.7915  -2.7781  -2.7481  -2.7326  -2.6937  -2.6872  -2.6579  -2.6246
    -2.6059  -2.5858  -2.5357  -2.5058  -2.4523  -2.4353  -2.4025  -2.3448
    -2.3021  -2.2503  -2.1995  -2.1439  -2.1009  -2.0697  -1.9729  -1.9066
    -1.8613  -1.6928  -1.5865  -1.5301  -1.4854  -1.4502  -1.4086  -1.3658
    -1.2958  -1.2058  -1.1539  -1.0674  -0.9671  -0.9456  -0.8359  -0.7771
    -0.1376   0.1506   0.5044   0.6794   0.7305   0.7818   0.8264   0.8856
     0.9434   0.9768   1.0050   1.0571   1.1225   1.1693   1.2098   1.2576
     1.2802   1.3338   1.3484   1.3660   1.3728   1.4159   1.4439   1.4538
     1.4798   1.5088   1.5269   1.5398   1.5504   1.5664   1.6048   1.6176
     1.6570   1.6796   1.6935   1.7088   1.7623   1.8188   1.8539   1.8939
     1.9327

     the Fermi energy is    -1.0951 ev

!    total energy              =  -11905.32267080 Ry

     total all-electron energy =   -281971.264804 Ry
     estimated scf accuracy    <       0.00000010 Ry
     smearing contrib. (-TS)   =      -0.00739788 Ry
     internal energy E=F+TS    =  -11905.31527292 Ry

     The total energy is F=E-TS. E is the sum of the following terms:
     one-electron contribution =  -19451.04505622 Ry
     hartree contribution      =    9760.05517797 Ry
     xc contribution           =    -549.13605927 Ry
     ewald contribution        =    7405.73151139 Ry
     Hubbard energy            =       0.32206930 Ry
     one-center paw contrib.   =   -9071.24291608 Ry

     total magnetization       =     4.76 Bohr mag/cell
     absolute magnetization    =    11.97 Bohr mag/cell

     convergence has been achieved in  19 iterations

     Writing output data file ./tmp/adatom.save/
 
     init_run     :    135.84s CPU    141.20s WALL (       1 calls)
     electrons    :   4151.57s CPU   4180.22s WALL (       1 calls)

     Called by init_run:
     wfcinit      :    100.89s CPU    103.04s WALL (       1 calls)
     potinit      :     10.15s CPU     11.03s WALL (       1 calls)
     hinit0       :     16.30s CPU     18.24s WALL (       1 calls)

     Called by electrons:
     c_bands      :   3408.92s CPU   3422.14s WALL (      19 calls)
     sum_band     :    564.97s CPU    572.75s WALL (      19 calls)
     v_of_rho     :     27.64s CPU     28.56s WALL (      20 calls)
     newd         :     33.58s CPU     39.18s WALL (      20 calls)
     PAW_pot      :     15.25s CPU     15.55s WALL (      20 calls)
     mix_rho      :    103.08s CPU    103.84s WALL (      19 calls)

     Called by c_bands:
     init_us_2    :     28.23s CPU     28.38s WALL (    1600 calls)
     cegterg      :   3311.80s CPU   3324.35s WALL (     762 calls)

     Called by *egterg:
     cdiaghg      :    259.66s CPU    261.71s WALL (    4210 calls)
     h_psi        :   1923.34s CPU   1932.73s WALL (    4250 calls)
     s_psi        :    186.73s CPU    187.06s WALL (    4290 calls)
     g_psi        :      6.09s CPU      6.13s WALL (    3448 calls)

     Called by h_psi:
     h_psi:calbec :    197.06s CPU    197.54s WALL (    4250 calls)
     vloc_psi     :   1484.34s CPU   1492.38s WALL (    4250 calls)
     add_vuspsi   :    181.95s CPU    182.35s WALL (    4250 calls)
     vhpsi        :     43.94s CPU     44.09s WALL (    4250 calls)

     General routines
     calbec       :    308.11s CPU    308.81s WALL (   10060 calls)
     fft          :     16.66s CPU     18.82s WALL (     494 calls)
     ffts         :     58.70s CPU     59.00s WALL (   15796 calls)
     fftw         :   1644.29s CPU   1652.70s WALL ( 1095366 calls)
     interpolate  :      1.08s CPU      1.11s WALL (      40 calls)
     davcio       :      0.01s CPU      0.17s WALL (      40 calls)
 
     Parallel routines

     Hubbard U routines
     new_ns       :     12.41s CPU     12.78s WALL (      19 calls)
     vhpsi        :     43.94s CPU     44.09s WALL (    4250 calls)
 
     PWSCF        :      1h12m CPU      1h13m WALL

 
   This run was terminated on:  19:57:44  20Jul2023            

=------------------------------------------------------------------------------=
   JOB DONE.
=------------------------------------------------------------------------------=
