 
             +---------------------------------------------------+
             |                                                   |
             |                   WANNIER90                       |
             |                                                   |
             +---------------------------------------------------+
             |                                                   |
             |        Welcome to the Maximally-Localized         |
             |        Generalized Wannier Functions code         |
             |            http://www.wannier.org                 |
             |                                                   |
             |                                                   |
             |  Wannier90 Developer Group:                       |
             |    Giovanni Pizzi    (EPFL)                       |
             |    Valerio Vitale    (Cambridge)                  |
             |    David Vanderbilt  (Rutgers University)         |
             |    Nicola Marzari    (EPFL)                       |
             |    Ivo Souza         (Universidad del Pais Vasco) |
             |    Arash A. Mostofi  (Imperial College London)    |
             |    Jonathan R. Yates (University of Oxford)       |
             |                                                   |
             |  For the full list of Wannier90 3.x authors,      |
             |  please check the code documentation and the      |
             |  README on the GitHub page of the code            |
             |                                                   |
             |                                                   |
             |  Please cite                                      |
             |                                                   |
             |  [ref] "Wannier90 as a community code:            |
             |        new features and applications",            |
             |        G. Pizzi et al., J. Phys. Cond. Matt. 32,  |
             |        165902 (2020).                             |
             |        http://doi.org/10.1088/1361-648X/ab51ff    |
             |                                                   |
             |  in any publications arising from the use of      |
             |  this code. For the method please cite            |
             |                                                   |
             |  [ref] "Maximally Localized Generalised Wannier   |
             |         Functions for Composite Energy Bands"     |
             |         N. Marzari and D. Vanderbilt              |
             |         Phys. Rev. B 56 12847 (1997)              |
             |                                                   |
             |  [ref] "Maximally Localized Wannier Functions     |
             |         for Entangled Energy Bands"               |
             |         I. Souza, N. Marzari and D. Vanderbilt    |
             |         Phys. Rev. B 65 035109 (2001)             |
             |                                                   |
             |                                                   |
             | Copyright (c) 1996-2020                           |
             |        The Wannier90 Developer Group and          |
             |        individual contributors                    |
             |                                                   |
             |      Release: 3.1.0        5th March    2020      |
             |                                                   |
             | This program is free software; you can            |
             | redistribute it and/or modify it under the terms  |
             | of the GNU General Public License as published by |
             | the Free Software Foundation; either version 2 of |
             | the License, or (at your option) any later version|
             |                                                   |
             | This program is distributed in the hope that it   |
             | will be useful, but WITHOUT ANY WARRANTY; without |
             | even the implied warranty of MERCHANTABILITY or   |
             | FITNESS FOR A PARTICULAR PURPOSE. See the GNU     |
             | General Public License for more details.          |
             |                                                   |
             | You should have received a copy of the GNU General|
             | Public License along with this program; if not,   |
             | write to the Free Software Foundation, Inc.,      |
             | 675 Mass Ave, Cambridge, MA 02139, USA.           |
             |                                                   |
             +---------------------------------------------------+
             |    Execution started on 24Jul2023 at 10:56:09     |
             +---------------------------------------------------+
 
 ******************************************************************************
 * -> Using CODATA 2006 constant values                                       *
 *    (http://physics.nist.gov/cuu/Constants/index.html)                      *
 * -> Using Bohr value from CODATA                                            *
 ******************************************************************************
 

 Running in parallel on  80 CPUs

 
                                    ------
                                    SYSTEM
                                    ------
 
                              Lattice Vectors (Ang)
                    a_1    13.784171   0.000000   0.000000
                    a_2    -6.892085  11.937442   0.000000
                    a_3     0.000000   0.000000  23.631430
 
                   Unit Cell Volume:    3888.49848  (Ang^3)
 
                        Reciprocal-Space Vectors (Ang^-1)
                    b_1     0.455826   0.263171   0.000000
                    b_2     0.000000   0.526343   0.000000
                    b_3     0.000000   0.000000   0.265883
  
 *----------------------------------------------------------------------------*
 |   Site       Fractional Coordinate          Cartesian Coordinate (Ang)     |
 +----------------------------------------------------------------------------+
 | Cr   1   0.33333   0.66667   0.16685   |   -0.00000   7.95829   3.94299    |
 | Cr   2   0.58000   0.66667   0.16685   |    3.40010   7.95829   3.94299    |
 | Nb   1   0.00000   0.00000   0.07170   |    0.00000   0.00000   1.69430    |
 | Nb   2   0.25189   0.00024   0.07201   |    3.47040   0.00287   1.70173    |
 | Nb   3   0.50228   0.00457   0.07084   |    6.89209   0.05454   1.67414    |
 | Nb   4   0.74835   0.00024   0.07201   |   10.31377   0.00287   1.70173    |
 | Nb   5   0.74850   0.25150   0.06828   |    8.58404   3.00230   1.61367    |
 | Nb   6   0.74850   0.49699   0.06828   |    6.89209   5.93284   1.61367    |
 | Nb   7   0.74835   0.74811   0.07201   |    5.15937   8.93055   1.70173    |
 | Nb   8   0.50032   0.75016   0.07859   |    1.72635   8.95500   1.85709    |
 | Nb   9   0.24984   0.75016   0.07859   |   -1.72635   8.95500   1.85709    |
 | Nb  10  -0.00024   0.74811   0.07201   |   -5.15937   8.93055   1.70173    |
 | Nb  11   0.50301   0.25150   0.06828   |    5.20014   3.00230   1.61367    |
 | Nb  12   0.50228   0.49772   0.07084   |    3.49327   5.94145   1.67414    |
 | Nb  13   0.24984   0.49968   0.07859   |   -0.00000   5.96488   1.85709    |
 | Nb  14   0.25189   0.25165   0.07201   |    1.73769   3.00402   1.70173    |
 | Nb  15  -0.00024   0.25165   0.07201   |   -1.73769   3.00402   1.70173    |
 | Nb  16  -0.00457   0.49772   0.07084   |   -3.49327   5.94145   1.67414    |
 | Se   1   0.16721   0.08361   0.00063   |    1.72866   0.99804   0.01486    |
 | Se   2   0.16690   0.08345   0.14290   |    1.72538   0.99615   3.37693    |
 | Se   3   0.41544   0.08143  -0.00156   |    5.16530   0.97207  -0.03681    |
 | Se   4   0.41911   0.08928   0.14188   |    5.16174   1.06572   3.35289    |
 | Se   5   0.66599   0.08143  -0.00156   |    8.61887   0.97207  -0.03681    |
 | Se   6   0.67017   0.08928   0.14188   |    8.62243   1.06572   3.35289    |
 | Se   7   0.91639   0.08361   0.00063   |   12.05551   0.99804   0.01486    |
 | Se   8   0.91655   0.08345   0.14290   |   12.05879   0.99615   3.37693    |
 | Se   9   0.91857   0.33401  -0.00156   |   10.35968   3.98724  -0.03681    |
 | Se  10   0.91072   0.32983   0.14188   |   10.28036   3.93734   3.35289    |
 | Se  11   0.91857   0.58456  -0.00156   |    8.63289   6.97813  -0.03681    |
 | Se  12   0.91072   0.58089   0.14188   |    8.55002   6.93438   3.35289    |
 | Se  13   0.91639   0.83279   0.00063   |    6.89209   9.94136   0.01486    |
 | Se  14   0.91655   0.83310   0.14290   |    6.89209   9.94514   3.37693    |
 | Se  15   0.66220   0.83110   0.00298   |    3.39989   9.92122   0.07043    |
 | Se  16   0.67172   0.83586   0.14547   |    3.49824   9.97800   3.43758    |
 | Se  17   0.41489   0.82979   0.00560   |    0.00000   9.90552   0.13226    |
 | Se  18   0.42825   0.85651   0.14992   |    0.00000  10.22450   3.54287    |
 | Se  19   0.16890   0.83110   0.00298   |   -3.39989   9.92122   0.07043    |
 | Se  20   0.16414   0.83586   0.14547   |   -3.49824   9.97800   3.43758    |
 | Se  21   0.66667   0.33333  -0.00432   |    6.89209   3.97915  -0.10210    |
 | Se  22   0.66667   0.33333   0.14105   |    6.89209   3.97915   3.33317    |
 | Se  23   0.66599   0.58456  -0.00156   |    5.15128   6.97813  -0.03681    |
 | Se  24   0.67017   0.58089   0.14188   |    5.23415   6.93438   3.35289    |
 | Se  25   0.41489   0.58511   0.00560   |    1.68635   6.98468   0.13226    |
 | Se  26   0.42825   0.57175   0.14992   |    1.96259   6.82519   3.54287    |
 | Se  27   0.41544   0.33401  -0.00156   |    3.42449   3.98724  -0.03681    |
 | Se  28   0.41911   0.32983   0.14188   |    3.50381   3.93734   3.35289    |
 | Se  29   0.16890   0.33780   0.00298   |    0.00000   4.03244   0.07043    |
 | Se  30   0.16414   0.32828   0.14547   |    0.00000   3.91888   3.43758    |
 | Se  31   0.17021   0.58511   0.00560   |   -1.68635   6.98468   0.13226    |
 | Se  32   0.14349   0.57175   0.14992   |   -1.96259   6.82519   3.54287    |
 *----------------------------------------------------------------------------*
                                -----------
                                PROJECTIONS
                                -----------
  
 +----------------------------------------------------------------------------+
 |     Frac. Coord.   l mr  r        z-axis               x-axis          Z/a |
 +----------------------------------------------------------------------------+
 |  0.33  0.67  0.17  2  1  1  0.000  0.000  1.000  1.000  0.000  0.000   1.0 |
 |  0.33  0.67  0.17  2  2  1  0.000  0.000  1.000  1.000  0.000  0.000   1.0 |
 |  0.33  0.67  0.17  2  3  1  0.000  0.000  1.000  1.000  0.000  0.000   1.0 |
 |  0.33  0.67  0.17  2  4  1  0.000  0.000  1.000  1.000  0.000  0.000   1.0 |
 |  0.33  0.67  0.17  2  5  1  0.000  0.000  1.000  1.000  0.000  0.000   1.0 |
 |  0.58  0.67  0.17  2  1  1  0.000  0.000  1.000  1.000  0.000  0.000   1.0 |
 |  0.58  0.67  0.17  2  2  1  0.000  0.000  1.000  1.000  0.000  0.000   1.0 |
 |  0.58  0.67  0.17  2  3  1  0.000  0.000  1.000  1.000  0.000  0.000   1.0 |
 |  0.58  0.67  0.17  2  4  1  0.000  0.000  1.000  1.000  0.000  0.000   1.0 |
 |  0.58  0.67  0.17  2  5  1  0.000  0.000  1.000  1.000  0.000  0.000   1.0 |
 |  0.00  0.00  0.07  2  1  1  0.000  0.000  1.000  1.000  0.000  0.000   1.0 |
 |  0.00  0.00  0.07  2  2  1  0.000  0.000  1.000  1.000  0.000  0.000   1.0 |
 |  0.00  0.00  0.07  2  3  1  0.000  0.000  1.000  1.000  0.000  0.000   1.0 |
 |  0.00  0.00  0.07  2  4  1  0.000  0.000  1.000  1.000  0.000  0.000   1.0 |
 |  0.00  0.00  0.07  2  5  1  0.000  0.000  1.000  1.000  0.000  0.000   1.0 |
 |  0.25  0.00  0.07  2  1  1  0.000  0.000  1.000  1.000  0.000  0.000   1.0 |
 |  0.25  0.00  0.07  2  2  1  0.000  0.000  1.000  1.000  0.000  0.000   1.0 |
 |  0.25  0.00  0.07  2  3  1  0.000  0.000  1.000  1.000  0.000  0.000   1.0 |
 |  0.25  0.00  0.07  2  4  1  0.000  0.000  1.000  1.000  0.000  0.000   1.0 |
 |  0.25  0.00  0.07  2  5  1  0.000  0.000  1.000  1.000  0.000  0.000   1.0 |
 |  0.50  0.00  0.07  2  1  1  0.000  0.000  1.000  1.000  0.000  0.000   1.0 |
 |  0.50  0.00  0.07  2  2  1  0.000  0.000  1.000  1.000  0.000  0.000   1.0 |
 |  0.50  0.00  0.07  2  3  1  0.000  0.000  1.000  1.000  0.000  0.000   1.0 |
 |  0.50  0.00  0.07  2  4  1  0.000  0.000  1.000  1.000  0.000  0.000   1.0 |
 |  0.50  0.00  0.07  2  5  1  0.000  0.000  1.000  1.000  0.000  0.000   1.0 |
 |  0.75  0.00  0.07  2  1  1  0.000  0.000  1.000  1.000  0.000  0.000   1.0 |
 |  0.75  0.00  0.07  2  2  1  0.000  0.000  1.000  1.000  0.000  0.000   1.0 |
 |  0.75  0.00  0.07  2  3  1  0.000  0.000  1.000  1.000  0.000  0.000   1.0 |
 |  0.75  0.00  0.07  2  4  1  0.000  0.000  1.000  1.000  0.000  0.000   1.0 |
 |  0.75  0.00  0.07  2  5  1  0.000  0.000  1.000  1.000  0.000  0.000   1.0 |
 |  0.75  0.25  0.07  2  1  1  0.000  0.000  1.000  1.000  0.000  0.000   1.0 |
 |  0.75  0.25  0.07  2  2  1  0.000  0.000  1.000  1.000  0.000  0.000   1.0 |
 |  0.75  0.25  0.07  2  3  1  0.000  0.000  1.000  1.000  0.000  0.000   1.0 |
 |  0.75  0.25  0.07  2  4  1  0.000  0.000  1.000  1.000  0.000  0.000   1.0 |
 |  0.75  0.25  0.07  2  5  1  0.000  0.000  1.000  1.000  0.000  0.000   1.0 |
 |  0.75  0.50  0.07  2  1  1  0.000  0.000  1.000  1.000  0.000  0.000   1.0 |
 |  0.75  0.50  0.07  2  2  1  0.000  0.000  1.000  1.000  0.000  0.000   1.0 |
 |  0.75  0.50  0.07  2  3  1  0.000  0.000  1.000  1.000  0.000  0.000   1.0 |
 |  0.75  0.50  0.07  2  4  1  0.000  0.000  1.000  1.000  0.000  0.000   1.0 |
 |  0.75  0.50  0.07  2  5  1  0.000  0.000  1.000  1.000  0.000  0.000   1.0 |
 |  0.75  0.75  0.07  2  1  1  0.000  0.000  1.000  1.000  0.000  0.000   1.0 |
 |  0.75  0.75  0.07  2  2  1  0.000  0.000  1.000  1.000  0.000  0.000   1.0 |
 |  0.75  0.75  0.07  2  3  1  0.000  0.000  1.000  1.000  0.000  0.000   1.0 |
 |  0.75  0.75  0.07  2  4  1  0.000  0.000  1.000  1.000  0.000  0.000   1.0 |
 |  0.75  0.75  0.07  2  5  1  0.000  0.000  1.000  1.000  0.000  0.000   1.0 |
 |  0.50  0.75  0.08  2  1  1  0.000  0.000  1.000  1.000  0.000  0.000   1.0 |
 |  0.50  0.75  0.08  2  2  1  0.000  0.000  1.000  1.000  0.000  0.000   1.0 |
 |  0.50  0.75  0.08  2  3  1  0.000  0.000  1.000  1.000  0.000  0.000   1.0 |
 |  0.50  0.75  0.08  2  4  1  0.000  0.000  1.000  1.000  0.000  0.000   1.0 |
 |  0.50  0.75  0.08  2  5  1  0.000  0.000  1.000  1.000  0.000  0.000   1.0 |
 |  0.25  0.75  0.08  2  1  1  0.000  0.000  1.000  1.000  0.000  0.000   1.0 |
 |  0.25  0.75  0.08  2  2  1  0.000  0.000  1.000  1.000  0.000  0.000   1.0 |
 |  0.25  0.75  0.08  2  3  1  0.000  0.000  1.000  1.000  0.000  0.000   1.0 |
 |  0.25  0.75  0.08  2  4  1  0.000  0.000  1.000  1.000  0.000  0.000   1.0 |
 |  0.25  0.75  0.08  2  5  1  0.000  0.000  1.000  1.000  0.000  0.000   1.0 |
 | -0.00  0.75  0.07  2  1  1  0.000  0.000  1.000  1.000  0.000  0.000   1.0 |
 | -0.00  0.75  0.07  2  2  1  0.000  0.000  1.000  1.000  0.000  0.000   1.0 |
 | -0.00  0.75  0.07  2  3  1  0.000  0.000  1.000  1.000  0.000  0.000   1.0 |
 | -0.00  0.75  0.07  2  4  1  0.000  0.000  1.000  1.000  0.000  0.000   1.0 |
 | -0.00  0.75  0.07  2  5  1  0.000  0.000  1.000  1.000  0.000  0.000   1.0 |
 |  0.50  0.25  0.07  2  1  1  0.000  0.000  1.000  1.000  0.000  0.000   1.0 |
 |  0.50  0.25  0.07  2  2  1  0.000  0.000  1.000  1.000  0.000  0.000   1.0 |
 |  0.50  0.25  0.07  2  3  1  0.000  0.000  1.000  1.000  0.000  0.000   1.0 |
 |  0.50  0.25  0.07  2  4  1  0.000  0.000  1.000  1.000  0.000  0.000   1.0 |
 |  0.50  0.25  0.07  2  5  1  0.000  0.000  1.000  1.000  0.000  0.000   1.0 |
 |  0.50  0.50  0.07  2  1  1  0.000  0.000  1.000  1.000  0.000  0.000   1.0 |
 |  0.50  0.50  0.07  2  2  1  0.000  0.000  1.000  1.000  0.000  0.000   1.0 |
 |  0.50  0.50  0.07  2  3  1  0.000  0.000  1.000  1.000  0.000  0.000   1.0 |
 |  0.50  0.50  0.07  2  4  1  0.000  0.000  1.000  1.000  0.000  0.000   1.0 |
 |  0.50  0.50  0.07  2  5  1  0.000  0.000  1.000  1.000  0.000  0.000   1.0 |
 |  0.25  0.50  0.08  2  1  1  0.000  0.000  1.000  1.000  0.000  0.000   1.0 |
 |  0.25  0.50  0.08  2  2  1  0.000  0.000  1.000  1.000  0.000  0.000   1.0 |
 |  0.25  0.50  0.08  2  3  1  0.000  0.000  1.000  1.000  0.000  0.000   1.0 |
 |  0.25  0.50  0.08  2  4  1  0.000  0.000  1.000  1.000  0.000  0.000   1.0 |
 |  0.25  0.50  0.08  2  5  1  0.000  0.000  1.000  1.000  0.000  0.000   1.0 |
 |  0.25  0.25  0.07  2  1  1  0.000  0.000  1.000  1.000  0.000  0.000   1.0 |
 |  0.25  0.25  0.07  2  2  1  0.000  0.000  1.000  1.000  0.000  0.000   1.0 |
 |  0.25  0.25  0.07  2  3  1  0.000  0.000  1.000  1.000  0.000  0.000   1.0 |
 |  0.25  0.25  0.07  2  4  1  0.000  0.000  1.000  1.000  0.000  0.000   1.0 |
 |  0.25  0.25  0.07  2  5  1  0.000  0.000  1.000  1.000  0.000  0.000   1.0 |
 | -0.00  0.25  0.07  2  1  1  0.000  0.000  1.000  1.000  0.000  0.000   1.0 |
 | -0.00  0.25  0.07  2  2  1  0.000  0.000  1.000  1.000  0.000  0.000   1.0 |
 | -0.00  0.25  0.07  2  3  1  0.000  0.000  1.000  1.000  0.000  0.000   1.0 |
 | -0.00  0.25  0.07  2  4  1  0.000  0.000  1.000  1.000  0.000  0.000   1.0 |
 | -0.00  0.25  0.07  2  5  1  0.000  0.000  1.000  1.000  0.000  0.000   1.0 |
 | -0.00  0.50  0.07  2  1  1  0.000  0.000  1.000  1.000  0.000  0.000   1.0 |
 | -0.00  0.50  0.07  2  2  1  0.000  0.000  1.000  1.000  0.000  0.000   1.0 |
 | -0.00  0.50  0.07  2  3  1  0.000  0.000  1.000  1.000  0.000  0.000   1.0 |
 | -0.00  0.50  0.07  2  4  1  0.000  0.000  1.000  1.000  0.000  0.000   1.0 |
 | -0.00  0.50  0.07  2  5  1  0.000  0.000  1.000  1.000  0.000  0.000   1.0 |
 |  0.17  0.08  0.00  1  1  1  0.000  0.000  1.000  1.000  0.000  0.000   1.0 |
 |  0.17  0.08  0.00  1  2  1  0.000  0.000  1.000  1.000  0.000  0.000   1.0 |
 |  0.17  0.08  0.00  1  3  1  0.000  0.000  1.000  1.000  0.000  0.000   1.0 |
 |  0.17  0.08  0.14  1  1  1  0.000  0.000  1.000  1.000  0.000  0.000   1.0 |
 |  0.17  0.08  0.14  1  2  1  0.000  0.000  1.000  1.000  0.000  0.000   1.0 |
 |  0.17  0.08  0.14  1  3  1  0.000  0.000  1.000  1.000  0.000  0.000   1.0 |
 |  0.42  0.08 -0.00  1  1  1  0.000  0.000  1.000  1.000  0.000  0.000   1.0 |
 |  0.42  0.08 -0.00  1  2  1  0.000  0.000  1.000  1.000  0.000  0.000   1.0 |
 |  0.42  0.08 -0.00  1  3  1  0.000  0.000  1.000  1.000  0.000  0.000   1.0 |
 |  0.42  0.09  0.14  1  1  1  0.000  0.000  1.000  1.000  0.000  0.000   1.0 |
 |  0.42  0.09  0.14  1  2  1  0.000  0.000  1.000  1.000  0.000  0.000   1.0 |
 |  0.42  0.09  0.14  1  3  1  0.000  0.000  1.000  1.000  0.000  0.000   1.0 |
 |  0.67  0.08 -0.00  1  1  1  0.000  0.000  1.000  1.000  0.000  0.000   1.0 |
 |  0.67  0.08 -0.00  1  2  1  0.000  0.000  1.000  1.000  0.000  0.000   1.0 |
 |  0.67  0.08 -0.00  1  3  1  0.000  0.000  1.000  1.000  0.000  0.000   1.0 |
 |  0.67  0.09  0.14  1  1  1  0.000  0.000  1.000  1.000  0.000  0.000   1.0 |
 |  0.67  0.09  0.14  1  2  1  0.000  0.000  1.000  1.000  0.000  0.000   1.0 |
 |  0.67  0.09  0.14  1  3  1  0.000  0.000  1.000  1.000  0.000  0.000   1.0 |
 |  0.92  0.08  0.00  1  1  1  0.000  0.000  1.000  1.000  0.000  0.000   1.0 |
 |  0.92  0.08  0.00  1  2  1  0.000  0.000  1.000  1.000  0.000  0.000   1.0 |
 |  0.92  0.08  0.00  1  3  1  0.000  0.000  1.000  1.000  0.000  0.000   1.0 |
 |  0.92  0.08  0.14  1  1  1  0.000  0.000  1.000  1.000  0.000  0.000   1.0 |
 |  0.92  0.08  0.14  1  2  1  0.000  0.000  1.000  1.000  0.000  0.000   1.0 |
 |  0.92  0.08  0.14  1  3  1  0.000  0.000  1.000  1.000  0.000  0.000   1.0 |
 |  0.92  0.33 -0.00  1  1  1  0.000  0.000  1.000  1.000  0.000  0.000   1.0 |
 |  0.92  0.33 -0.00  1  2  1  0.000  0.000  1.000  1.000  0.000  0.000   1.0 |
 |  0.92  0.33 -0.00  1  3  1  0.000  0.000  1.000  1.000  0.000  0.000   1.0 |
 |  0.91  0.33  0.14  1  1  1  0.000  0.000  1.000  1.000  0.000  0.000   1.0 |
 |  0.91  0.33  0.14  1  2  1  0.000  0.000  1.000  1.000  0.000  0.000   1.0 |
 |  0.91  0.33  0.14  1  3  1  0.000  0.000  1.000  1.000  0.000  0.000   1.0 |
 |  0.92  0.58 -0.00  1  1  1  0.000  0.000  1.000  1.000  0.000  0.000   1.0 |
 |  0.92  0.58 -0.00  1  2  1  0.000  0.000  1.000  1.000  0.000  0.000   1.0 |
 |  0.92  0.58 -0.00  1  3  1  0.000  0.000  1.000  1.000  0.000  0.000   1.0 |
 |  0.91  0.58  0.14  1  1  1  0.000  0.000  1.000  1.000  0.000  0.000   1.0 |
 |  0.91  0.58  0.14  1  2  1  0.000  0.000  1.000  1.000  0.000  0.000   1.0 |
 |  0.91  0.58  0.14  1  3  1  0.000  0.000  1.000  1.000  0.000  0.000   1.0 |
 |  0.92  0.83  0.00  1  1  1  0.000  0.000  1.000  1.000  0.000  0.000   1.0 |
 |  0.92  0.83  0.00  1  2  1  0.000  0.000  1.000  1.000  0.000  0.000   1.0 |
 |  0.92  0.83  0.00  1  3  1  0.000  0.000  1.000  1.000  0.000  0.000   1.0 |
 |  0.92  0.83  0.14  1  1  1  0.000  0.000  1.000  1.000  0.000  0.000   1.0 |
 |  0.92  0.83  0.14  1  2  1  0.000  0.000  1.000  1.000  0.000  0.000   1.0 |
 |  0.92  0.83  0.14  1  3  1  0.000  0.000  1.000  1.000  0.000  0.000   1.0 |
 |  0.66  0.83  0.00  1  1  1  0.000  0.000  1.000  1.000  0.000  0.000   1.0 |
 |  0.66  0.83  0.00  1  2  1  0.000  0.000  1.000  1.000  0.000  0.000   1.0 |
 |  0.66  0.83  0.00  1  3  1  0.000  0.000  1.000  1.000  0.000  0.000   1.0 |
 |  0.67  0.84  0.15  1  1  1  0.000  0.000  1.000  1.000  0.000  0.000   1.0 |
 |  0.67  0.84  0.15  1  2  1  0.000  0.000  1.000  1.000  0.000  0.000   1.0 |
 |  0.67  0.84  0.15  1  3  1  0.000  0.000  1.000  1.000  0.000  0.000   1.0 |
 |  0.41  0.83  0.01  1  1  1  0.000  0.000  1.000  1.000  0.000  0.000   1.0 |
 |  0.41  0.83  0.01  1  2  1  0.000  0.000  1.000  1.000  0.000  0.000   1.0 |
 |  0.41  0.83  0.01  1  3  1  0.000  0.000  1.000  1.000  0.000  0.000   1.0 |
 |  0.43  0.86  0.15  1  1  1  0.000  0.000  1.000  1.000  0.000  0.000   1.0 |
 |  0.43  0.86  0.15  1  2  1  0.000  0.000  1.000  1.000  0.000  0.000   1.0 |
 |  0.43  0.86  0.15  1  3  1  0.000  0.000  1.000  1.000  0.000  0.000   1.0 |
 |  0.17  0.83  0.00  1  1  1  0.000  0.000  1.000  1.000  0.000  0.000   1.0 |
 |  0.17  0.83  0.00  1  2  1  0.000  0.000  1.000  1.000  0.000  0.000   1.0 |
 |  0.17  0.83  0.00  1  3  1  0.000  0.000  1.000  1.000  0.000  0.000   1.0 |
 |  0.16  0.84  0.15  1  1  1  0.000  0.000  1.000  1.000  0.000  0.000   1.0 |
 |  0.16  0.84  0.15  1  2  1  0.000  0.000  1.000  1.000  0.000  0.000   1.0 |
 |  0.16  0.84  0.15  1  3  1  0.000  0.000  1.000  1.000  0.000  0.000   1.0 |
 |  0.67  0.33 -0.00  1  1  1  0.000  0.000  1.000  1.000  0.000  0.000   1.0 |
 |  0.67  0.33 -0.00  1  2  1  0.000  0.000  1.000  1.000  0.000  0.000   1.0 |
 |  0.67  0.33 -0.00  1  3  1  0.000  0.000  1.000  1.000  0.000  0.000   1.0 |
 |  0.67  0.33  0.14  1  1  1  0.000  0.000  1.000  1.000  0.000  0.000   1.0 |
 |  0.67  0.33  0.14  1  2  1  0.000  0.000  1.000  1.000  0.000  0.000   1.0 |
 |  0.67  0.33  0.14  1  3  1  0.000  0.000  1.000  1.000  0.000  0.000   1.0 |
 |  0.67  0.58 -0.00  1  1  1  0.000  0.000  1.000  1.000  0.000  0.000   1.0 |
 |  0.67  0.58 -0.00  1  2  1  0.000  0.000  1.000  1.000  0.000  0.000   1.0 |
 |  0.67  0.58 -0.00  1  3  1  0.000  0.000  1.000  1.000  0.000  0.000   1.0 |
 |  0.67  0.58  0.14  1  1  1  0.000  0.000  1.000  1.000  0.000  0.000   1.0 |
 |  0.67  0.58  0.14  1  2  1  0.000  0.000  1.000  1.000  0.000  0.000   1.0 |
 |  0.67  0.58  0.14  1  3  1  0.000  0.000  1.000  1.000  0.000  0.000   1.0 |
 |  0.41  0.59  0.01  1  1  1  0.000  0.000  1.000  1.000  0.000  0.000   1.0 |
 |  0.41  0.59  0.01  1  2  1  0.000  0.000  1.000  1.000  0.000  0.000   1.0 |
 |  0.41  0.59  0.01  1  3  1  0.000  0.000  1.000  1.000  0.000  0.000   1.0 |
 |  0.43  0.57  0.15  1  1  1  0.000  0.000  1.000  1.000  0.000  0.000   1.0 |
 |  0.43  0.57  0.15  1  2  1  0.000  0.000  1.000  1.000  0.000  0.000   1.0 |
 |  0.43  0.57  0.15  1  3  1  0.000  0.000  1.000  1.000  0.000  0.000   1.0 |
 |  0.42  0.33 -0.00  1  1  1  0.000  0.000  1.000  1.000  0.000  0.000   1.0 |
 |  0.42  0.33 -0.00  1  2  1  0.000  0.000  1.000  1.000  0.000  0.000   1.0 |
 |  0.42  0.33 -0.00  1  3  1  0.000  0.000  1.000  1.000  0.000  0.000   1.0 |
 |  0.42  0.33  0.14  1  1  1  0.000  0.000  1.000  1.000  0.000  0.000   1.0 |
 |  0.42  0.33  0.14  1  2  1  0.000  0.000  1.000  1.000  0.000  0.000   1.0 |
 |  0.42  0.33  0.14  1  3  1  0.000  0.000  1.000  1.000  0.000  0.000   1.0 |
 |  0.17  0.34  0.00  1  1  1  0.000  0.000  1.000  1.000  0.000  0.000   1.0 |
 |  0.17  0.34  0.00  1  2  1  0.000  0.000  1.000  1.000  0.000  0.000   1.0 |
 |  0.17  0.34  0.00  1  3  1  0.000  0.000  1.000  1.000  0.000  0.000   1.0 |
 |  0.16  0.33  0.15  1  1  1  0.000  0.000  1.000  1.000  0.000  0.000   1.0 |
 |  0.16  0.33  0.15  1  2  1  0.000  0.000  1.000  1.000  0.000  0.000   1.0 |
 |  0.16  0.33  0.15  1  3  1  0.000  0.000  1.000  1.000  0.000  0.000   1.0 |
 |  0.17  0.59  0.01  1  1  1  0.000  0.000  1.000  1.000  0.000  0.000   1.0 |
 |  0.17  0.59  0.01  1  2  1  0.000  0.000  1.000  1.000  0.000  0.000   1.0 |
 |  0.17  0.59  0.01  1  3  1  0.000  0.000  1.000  1.000  0.000  0.000   1.0 |
 |  0.14  0.57  0.15  1  1  1  0.000  0.000  1.000  1.000  0.000  0.000   1.0 |
 |  0.14  0.57  0.15  1  2  1  0.000  0.000  1.000  1.000  0.000  0.000   1.0 |
 |  0.14  0.57  0.15  1  3  1  0.000  0.000  1.000  1.000  0.000  0.000   1.0 |
 +----------------------------------------------------------------------------+
  
                                ------------
                                K-POINT GRID
                                ------------
  
             Grid size =  1 x  1 x  1      Total points =    1
  
 *----------------------------------------------------------------------------*
 | k-point      Fractional Coordinate        Cartesian Coordinate (Ang^-1)    |
 +----------------------------------------------------------------------------+
 |     1    0.00000   0.00000   0.00000   |    0.00000   0.00000   0.00000    |
 *----------------------------------------------------------------------------*
  
  
 *---------------------------------- MAIN ------------------------------------*
 |  Number of Wannier Functions               :               186             |
 |  Number of Objective Wannier Functions     :               186             |
 |  Number of input Bloch states              :               450             |
 |  Output verbosity (1=low, 5=high)          :                 3             |
 |  Timing Level (1=low, 5=high)              :                 1             |
 |  Optimisation (0=memory, 3=speed)          :                 3             |
 |  Length Unit                               :               Ang             |
 |  Post-processing setup (write *.nnkp)      :                 F             |
 |  Using Gamma-only branch of algorithms     :                 F             |
 |  CP code post-processing                   :                 F             |
 |  Wavefunction (UNK) file-type              :       unformatted             |
 |  Wavefunction spin channel                 :                up             |
 *----------------------------------------------------------------------------*
 *------------------------------- WANNIERISE ---------------------------------*
 |  Total number of iterations                :               500             |
 |  Number of CG steps before reset           :                 5             |
 |  Trial step length for line search         :             2.000             |
 |  Convergence tolerence                     :         0.100E-09             |
 |  Convergence window                        :                -1             |
 |  Iterations between writing output         :                50             |
 |  Iterations between backing up to disk     :               100             |
 |  Write r^2_nm to file                      :                 F             |
 |  Write xyz WF centres to file              :                 T             |
 |  Write on-site energies <0n|H|0n> to file  :                 F             |
 |  Use guiding centre to control phases      :                 T             |
 |  Use phases for initial projections        :                 F             |
 |  Iterations before starting guiding centres:                 0             |
 |  Iterations between using guiding centres  :                 1             |
 |  Perform selective localization            :                 F             |
 |  Use constrains in selective localization  :                 F             |
 |  Value of the Lagrange multiplier          :         0.100E+01             |
 *----------------------------------------------------------------------------*
 *------------------------------- DISENTANGLE --------------------------------*
 |  Using band disentanglement                :                 T             |
 |  Total number of iterations                :              4000             |
 |  Mixing ratio                              :             0.500             |
 |  Convergence tolerence                     :         1.000E-10             |
 |  Convergence window                        :                 3             |
 *----------------------------------------------------------------------------*
 *-------------------------------- PLOTTING ----------------------------------*
 |  Plotting Wannier functions                :                 F             |
 |   Size of supercell for plotting           :     2x    2x    2             |
 |   Plotting mode (molecule or crystal)      :           crystal             |
 |   Plotting format                          :          xcrysden             |
 |   Plot radius                              :             3.500             |
 |   Plot scale                               :             1.000             |
 *----------------------------------------------------------------------------*
 |  Plotting Fermi surface                    :                 F             |
 |   Number of plotting points (along b_1)    :                50             |
 |   Plotting format                          :          xcrysden             |
 *----------------------------------------------------------------------------*
 |  Plotting interpolated bandstructure       :                 T             |
 |   Number of K-path sections                :                 4             |
 |   Divisions along first K-path section     :               100             |
 |   Output format                            :           gnuplot             |
 |   Output mode                              :               s-k             |
 *----------------------------------------------------------------------------*
 |   K-space path sections:                                                   |
 |    From: Γ      0.000  0.000  0.000     To: X       0.500  0.000  0.000   |
 |    From: X       0.500  0.000  0.000     To: S       0.500  0.500  0.000   |
 |    From: S       0.500  0.500  0.000     To: Y       0.000  0.500  0.000   |
 |    From: Y       0.000  0.500  0.000     To: Γ      0.000  0.000  0.000   |
 *----------------------------------------------------------------------------*
 |  Plotting Hamiltonian in WF basis          :                 T             |
 *----------------------------------------------------------------------------*
 |  Writing data for Van der Waals post-proc  :                 F             |
 *----------------------------------------------------------------------------*
 *------------------------------- TRANSPORT ----------------------------------*
 |  Transport mode                            :              bulk             |
 |   Hamiltonian from external files          :                 F             |
 |   System extended in                       :              none             |
 |   Centre of the unit cell to which WF are translated (fract. coords):      |
 |                                       0.000000,    0.000000,    0.000000   |
 |  Fermi energy (eV)                         :             0.000             |
 *----------------------------------------------------------------------------*
 Time to read parameters        0.026 (sec)

 *---------------------------------- K-MESH ----------------------------------*
 +----------------------------------------------------------------------------+
 |                    Distance to Nearest-Neighbour Shells                    |
 |                    ------------------------------------                    |
 |          Shell             Distance (Ang^-1)          Multiplicity         |
 |          -----             -----------------          ------------         |
 |             1                   0.265883                      2            |
 |             2                   0.526343                      6            |
 |             3                   0.531765                      2            |
 |             4                   0.589686                     12            |
 |             5                   0.748205                     12            |
 |             6                   0.797648                      2            |
 |             7                   0.911652                      6            |
 |             8                   0.949633                     12            |
 |             9                   0.955656                     12            |
 |            10                   1.052685                      6            |
 |            11                   1.055407                     12            |
 |            12                   1.063530                      2            |
 |            13                   1.085744                     12            |
 |            14                   1.179373                     12            |
 |            15                   1.186648                     12            |
 |            16                   1.211343                     12            |
 |            17                   1.320753                     12            |
 |            18                   1.329413                      2            |
 |            19                   1.392572                     12            |
 |            20                   1.400788                     12            |
 |            21                   1.417727                     24            |
 |            22                   1.429816                     12            |
 |            23                   1.490648                     24            |
 |            24                   1.496410                     12            |
 |            25                   1.579028                      6            |
 |            26                   1.601257                     12            |
 |            27                   1.604836                     24            |
 |            28                   1.611970                     12            |
 |            29                   1.666164                     12            |
 |            30                   1.695726                     12            |
 |            31                   1.752242                     24            |
 |            32                   1.769059                     12            |
 |            33                   1.823305                      6            |
 |            34                   1.842589                     12            |
 |            35                   1.897756                     12            |
 |            36                   1.899267                     12            |
 +----------------------------------------------------------------------------+
 | The b-vectors are chosen automatically                                     |
 | Shell:  1 Multiplicity:  2                                                 |
 | b-vector 1 :        0.000000    0.000000    0.265883      (Ang^-1)         |
 | b-vector 2 :        0.000000    0.000000   -0.265883      (Ang^-1)         |
 | Shell:  1 w_b    7.0727819      (Ang^2)                                    |
 | B1 condition is not satisfied: Adding another shell                        |
 | Shell:  2 Multiplicity:  6                                                 |
 | b-vector 1 :        0.455826    0.263171    0.000000      (Ang^-1)         |
 | b-vector 2 :        0.455826   -0.263171    0.000000      (Ang^-1)         |
 | b-vector 3 :        0.000000    0.526343    0.000000      (Ang^-1)         |
 | b-vector 4 :        0.000000   -0.526343    0.000000      (Ang^-1)         |
 | b-vector 5 :       -0.455826    0.263171    0.000000      (Ang^-1)         |
 | b-vector 6 :       -0.455826   -0.263171    0.000000      (Ang^-1)         |
 | Shell:  1 w_b    7.0727819      (Ang^2)                                    |
 | Shell:  2 w_b    1.2032104      (Ang^2)                                    |
 | The following shells are used:   1,  2                                     |
 +----------------------------------------------------------------------------+
 |                        Shell   # Nearest-Neighbours                        |
 |                        -----   --------------------                        |
 |                          1               2                                 |
 |                          2               6                                 |
 +----------------------------------------------------------------------------+
 | Completeness relation is fully satisfied [Eq. (B1), PRB 56, 12847 (1997)]  |
 +----------------------------------------------------------------------------+
 |                  b_k Vectors (Ang^-1) and Weights (Ang^2)                  |
 |                  ----------------------------------------                  |
 |            No.         b_k(x)      b_k(y)      b_k(z)        w_b           |
 |            ---        --------------------------------     --------        |
 |             1         0.000000    0.000000    0.265883     7.072782        |
 |             2         0.000000    0.000000   -0.265883     7.072782        |
 |             3         0.455826    0.263171    0.000000     1.203210        |
 |             4         0.455826   -0.263171    0.000000     1.203210        |
 |             5         0.000000    0.526343    0.000000     1.203210        |
 |             6         0.000000   -0.526343    0.000000     1.203210        |
 |             7        -0.455826    0.263171    0.000000     1.203210        |
 |             8        -0.455826   -0.263171    0.000000     1.203210        |
 +----------------------------------------------------------------------------+
 |                           b_k Directions (Ang^-1)                          |
 |                           -----------------------                          |
 |            No.           x           y           z                         |
 |            ---        --------------------------------                     |
 |             1         0.000000    0.000000    0.265883                     |
 |             2         0.455826    0.263171    0.000000                     |
 |             3         0.455826   -0.263171    0.000000                     |
 |             4         0.000000    0.526343    0.000000                     |
 +----------------------------------------------------------------------------+
  
 Time to get kmesh              0.023 (sec)
 *============================================================================*
 |                              MEMORY ESTIMATE                               |
 |         Maximum RAM allocated during each phase of the calculation         |
 *============================================================================*
 |                        Disentanglement           41.81 Mb                  |
 |                            Wannierise:           14.65 Mb                  |
 |                                                                            |
 |   N.B. by setting optimisation=0 memory usage will be reduced to:          |
 |                        Disentanglement           41.81 Mb                  |
 |                            Wannierise:           10.42 Mb                  |
 |   However, this will result in more i/o and slow down the calculation      |
 |                          plot_wannier:           14.65 Mb                  |
 *----------------------------------------------------------------------------*
  
 Starting a new Wannier90 calculation ...


 Reading overlaps from 2cr.up.mmn    :  Created on 20Jul2023 at 20: 5:14

 Reading projections from 2cr.up.amn :  Created on 20Jul2023 at 20: 4: 3

 Time to read overlaps          4.140 (sec)

 *------------------------------- DISENTANGLE --------------------------------*
 +----------------------------------------------------------------------------+
 |                              Energy  Windows                               |
 |                              ---------------                               |
 |                   Outer:  -30.00000  to   30.00000  (eV)                   |
 |                   Inner:   -6.00000  to    2.50000  (eV)                   |
 +----------------------------------------------------------------------------+
 |                        K-points with Frozen States                         |
 |                        ---------------------------                         |
 |     1                                                                      |
 +----------------------------------------------------------------------------+
   Number of target bands to extract:  186
 +----------------------------------------------------------------------------+
 |                                  Windows                                   |
 |                                  -------                                   |
 |               K-point      Ndimwin     Ndimfroz    Nfirstwin               |
 |               ----------------------------------------------               |
 |                   1          378          158          73                  |
 +----------------------------------------------------------------------------+

                   Unitarised projection of Wannier functions                  
                   ------------------------------------------                  
   A_mn = <psi_m|g_n> --> S = A.A^+ --> U = S^-1/2.A
   In dis_project... done
   Using an inner window (linner = T)
   In dis_proj_froz...
 K-point   1 ndimwin: 378 we want the 28 leading eigenvector(s) of QPQ
  lambda(  1)= -0.000000000000
  lambda(  2)= -0.000000000000
  lambda(  3)= -0.000000000000
  lambda(  4)= -0.000000000000
  lambda(  5)= -0.000000000000
  lambda(  6)= -0.000000000000
  lambda(  7)= -0.000000000000
  lambda(  8)= -0.000000000000
  lambda(  9)= -0.000000000000
  lambda( 10)= -0.000000000000
  lambda( 11)= -0.000000000000
  lambda( 12)= -0.000000000000
  lambda( 13)= -0.000000000000
  lambda( 14)= -0.000000000000
  lambda( 15)= -0.000000000000
  lambda( 16)= -0.000000000000
  lambda( 17)= -0.000000000000
  lambda( 18)= -0.000000000000
  lambda( 19)= -0.000000000000
  lambda( 20)= -0.000000000000
  lambda( 21)= -0.000000000000
  lambda( 22)= -0.000000000000
  lambda( 23)= -0.000000000000
  lambda( 24)= -0.000000000000
  lambda( 25)= -0.000000000000
  lambda( 26)= -0.000000000000
  lambda( 27)= -0.000000000000
  lambda( 28)= -0.000000000000
  lambda( 29)= -0.000000000000
  lambda( 30)= -0.000000000000
  lambda( 31)= -0.000000000000
  lambda( 32)= -0.000000000000
  lambda( 33)= -0.000000000000
  lambda( 34)= -0.000000000000
  lambda( 35)= -0.000000000000
  lambda( 36)= -0.000000000000
  lambda( 37)= -0.000000000000
  lambda( 38)= -0.000000000000
  lambda( 39)= -0.000000000000
  lambda( 40)= -0.000000000000
  lambda( 41)= -0.000000000000
  lambda( 42)= -0.000000000000
  lambda( 43)= -0.000000000000
  lambda( 44)= -0.000000000000
  lambda( 45)= -0.000000000000
  lambda( 46)= -0.000000000000
  lambda( 47)= -0.000000000000
  lambda( 48)= -0.000000000000
  lambda( 49)= -0.000000000000
  lambda( 50)= -0.000000000000
  lambda( 51)= -0.000000000000
  lambda( 52)= -0.000000000000
  lambda( 53)= -0.000000000000
  lambda( 54)= -0.000000000000
  lambda( 55)= -0.000000000000
  lambda( 56)= -0.000000000000
  lambda( 57)= -0.000000000000
  lambda( 58)= -0.000000000000
  lambda( 59)= -0.000000000000
  lambda( 60)= -0.000000000000
  lambda( 61)= -0.000000000000
  lambda( 62)= -0.000000000000
  lambda( 63)= -0.000000000000
  lambda( 64)= -0.000000000000
  lambda( 65)= -0.000000000000
  lambda( 66)= -0.000000000000
  lambda( 67)= -0.000000000000
  lambda( 68)= -0.000000000000
  lambda( 69)= -0.000000000000
  lambda( 70)= -0.000000000000
  lambda( 71)= -0.000000000000
  lambda( 72)= -0.000000000000
  lambda( 73)= -0.000000000000
  lambda( 74)= -0.000000000000
  lambda( 75)= -0.000000000000
  lambda( 76)= -0.000000000000
  lambda( 77)= -0.000000000000
  lambda( 78)= -0.000000000000
  lambda( 79)= -0.000000000000
  lambda( 80)= -0.000000000000
  lambda( 81)= -0.000000000000
  lambda( 82)= -0.000000000000
  lambda( 83)= -0.000000000000
  lambda( 84)= -0.000000000000
  lambda( 85)= -0.000000000000
  lambda( 86)= -0.000000000000
  lambda( 87)= -0.000000000000
  lambda( 88)= -0.000000000000
  lambda( 89)= -0.000000000000
  lambda( 90)= -0.000000000000
  lambda( 91)= -0.000000000000
  lambda( 92)= -0.000000000000
  lambda( 93)= -0.000000000000
  lambda( 94)= -0.000000000000
  lambda( 95)= -0.000000000000
  lambda( 96)= -0.000000000000
  lambda( 97)= -0.000000000000
  lambda( 98)= -0.000000000000
  lambda( 99)=  0.000000000000
  lambda(100)=  0.000000000000
  lambda(101)=  0.000000000000
  lambda(102)=  0.000000000000
  lambda(103)=  0.000000000000
  lambda(104)=  0.000000000000
  lambda(105)=  0.000000000000
  lambda(106)=  0.000000000000
  lambda(107)=  0.000000000000
  lambda(108)=  0.000000000000
  lambda(109)=  0.000000000000
  lambda(110)=  0.000000000000
  lambda(111)=  0.000000000000
  lambda(112)=  0.000000000000
  lambda(113)=  0.000000000000
  lambda(114)=  0.000000000000
  lambda(115)=  0.000000000000
  lambda(116)=  0.000000000000
  lambda(117)=  0.000000000000
  lambda(118)=  0.000000000000
  lambda(119)=  0.000000000000
  lambda(120)=  0.000000000000
  lambda(121)=  0.000000000000
  lambda(122)=  0.000000000000
  lambda(123)=  0.000000000000
  lambda(124)=  0.000000000000
  lambda(125)=  0.000000000000
  lambda(126)=  0.000000000000
  lambda(127)=  0.000000000000
  lambda(128)=  0.000000000000
  lambda(129)=  0.000000000000
  lambda(130)=  0.000000000000
  lambda(131)=  0.000000000000
  lambda(132)=  0.000000000000
  lambda(133)=  0.000000000000
  lambda(134)=  0.000000000000
  lambda(135)=  0.000000000000
  lambda(136)=  0.000000000000
  lambda(137)=  0.000000000000
  lambda(138)=  0.000000000000
  lambda(139)=  0.000000000000
  lambda(140)=  0.000000000000
  lambda(141)=  0.000000000000
  lambda(142)=  0.000000000000
  lambda(143)=  0.000000000000
  lambda(144)=  0.000000000000
  lambda(145)=  0.000000000000
  lambda(146)=  0.000000000000
  lambda(147)=  0.000000000000
  lambda(148)=  0.000000000000
  lambda(149)=  0.000000000000
  lambda(150)=  0.000000000000
  lambda(151)=  0.000000000000
  lambda(152)=  0.000000000000
  lambda(153)=  0.000000000000
  lambda(154)=  0.000000000000
  lambda(155)=  0.000000000000
  lambda(156)=  0.000000000000
  lambda(157)=  0.000000000000
  lambda(158)=  0.000000000000
  lambda(159)=  0.000000000000
  lambda(160)=  0.000000000000
  lambda(161)=  0.000000000000
  lambda(162)=  0.000000000000
  lambda(163)=  0.000000000000
  lambda(164)=  0.000000000000
  lambda(165)=  0.000000000000
  lambda(166)=  0.000000000000
  lambda(167)=  0.000000000000
  lambda(168)=  0.000000000000
  lambda(169)=  0.000000000000
  lambda(170)=  0.000000000000
  lambda(171)=  0.000000000000
  lambda(172)=  0.000000000000
  lambda(173)=  0.000000000000
  lambda(174)=  0.000000000000
  lambda(175)=  0.000000000000
  lambda(176)=  0.000000000000
  lambda(177)=  0.000000000000
  lambda(178)=  0.000000000000
  lambda(179)=  0.000000000000
  lambda(180)=  0.000000000000
  lambda(181)=  0.000000000000
  lambda(182)=  0.000000000000
  lambda(183)=  0.000000000000
  lambda(184)=  0.000000000000
  lambda(185)=  0.000000000000
  lambda(186)=  0.000000000000
  lambda(187)=  0.000000000000
  lambda(188)=  0.000000000000
  lambda(189)=  0.000000000000
  lambda(190)=  0.000000000000
  lambda(191)=  0.000000000000
  lambda(192)=  0.000000000000
  lambda(193)=  0.000000010406
  lambda(194)=  0.000000021639
  lambda(195)=  0.000000053703
  lambda(196)=  0.000000075465
  lambda(197)=  0.000000125600
  lambda(198)=  0.000000141194
  lambda(199)=  0.000000196918
  lambda(200)=  0.000000235270
  lambda(201)=  0.000000374030
  lambda(202)=  0.000000528508
  lambda(203)=  0.000000769398
  lambda(204)=  0.000000928629
  lambda(205)=  0.000001172279
  lambda(206)=  0.000001251967
  lambda(207)=  0.000001903574
  lambda(208)=  0.000003046518
  lambda(209)=  0.000003895408
  lambda(210)=  0.000004050777
  lambda(211)=  0.000006615011
  lambda(212)=  0.000008144550
  lambda(213)=  0.000012829030
  lambda(214)=  0.000014252619
  lambda(215)=  0.000020590323
  lambda(216)=  0.000022069836
  lambda(217)=  0.000028610157
  lambda(218)=  0.000033202263
  lambda(219)=  0.000044182376
  lambda(220)=  0.000048348990
  lambda(221)=  0.000066723822
  lambda(222)=  0.000080267939
  lambda(223)=  0.000094839707
  lambda(224)=  0.000139813178
  lambda(225)=  0.000164777834
  lambda(226)=  0.000187943047
  lambda(227)=  0.000217617811
  lambda(228)=  0.000261918775
  lambda(229)=  0.000296542178
  lambda(230)=  0.000323379442
  lambda(231)=  0.000362502621
  lambda(232)=  0.000437931006
  lambda(233)=  0.000547636543
  lambda(234)=  0.000610079294
  lambda(235)=  0.000828784827
  lambda(236)=  0.000914921872
  lambda(237)=  0.001069193448
  lambda(238)=  0.001081565745
  lambda(239)=  0.001367232361
  lambda(240)=  0.001485668562
  lambda(241)=  0.001602876979
  lambda(242)=  0.001828640282
  lambda(243)=  0.002110292809
  lambda(244)=  0.002247572732
  lambda(245)=  0.002502771380
  lambda(246)=  0.002641938967
  lambda(247)=  0.002874855916
  lambda(248)=  0.003317506344
  lambda(249)=  0.003575862995
  lambda(250)=  0.004012792549
  lambda(251)=  0.004060074437
  lambda(252)=  0.004422292204
  lambda(253)=  0.005010046761
  lambda(254)=  0.005207985698
  lambda(255)=  0.005335865496
  lambda(256)=  0.005619052867
  lambda(257)=  0.006403160078
  lambda(258)=  0.006963934550
  lambda(259)=  0.007722777612
  lambda(260)=  0.008557227612
  lambda(261)=  0.009073264763
  lambda(262)=  0.009477006094
  lambda(263)=  0.010368525407
  lambda(264)=  0.010680052531
  lambda(265)=  0.011486100756
  lambda(266)=  0.012493250654
  lambda(267)=  0.013993856401
  lambda(268)=  0.014348741404
  lambda(269)=  0.015156892199
  lambda(270)=  0.016576785320
  lambda(271)=  0.017941066877
  lambda(272)=  0.018904310272
  lambda(273)=  0.019947967302
  lambda(274)=  0.021387262913
  lambda(275)=  0.022585066919
  lambda(276)=  0.024672724632
  lambda(277)=  0.025572694994
  lambda(278)=  0.026440281010
  lambda(279)=  0.029452063994
  lambda(280)=  0.031144735395
  lambda(281)=  0.032206995981
  lambda(282)=  0.032624972690
  lambda(283)=  0.033741831218
  lambda(284)=  0.034074145823
  lambda(285)=  0.034432878085
  lambda(286)=  0.035035272353
  lambda(287)=  0.036696457326
  lambda(288)=  0.037494491649
  lambda(289)=  0.040063677185
  lambda(290)=  0.041783129497
  lambda(291)=  0.045452974235
  lambda(292)=  0.048094572938
  lambda(293)=  0.051757155076
  lambda(294)=  0.054313234477
  lambda(295)=  0.054903559718
  lambda(296)=  0.057219443933
  lambda(297)=  0.060777488586
  lambda(298)=  0.062050966266
  lambda(299)=  0.063946584438
  lambda(300)=  0.064469309459
  lambda(301)=  0.066052299279
  lambda(302)=  0.066538626599
  lambda(303)=  0.068763762719
  lambda(304)=  0.070372350162
  lambda(305)=  0.072607468860
  lambda(306)=  0.073944353219
  lambda(307)=  0.076434939359
  lambda(308)=  0.077287996338
  lambda(309)=  0.078281332063
  lambda(310)=  0.082437463091
  lambda(311)=  0.097219876316
  lambda(312)=  0.104292551122
  lambda(313)=  0.109955235528
  lambda(314)=  0.112842999836
  lambda(315)=  0.113571766980
  lambda(316)=  0.116051363559
  lambda(317)=  0.119294587367
  lambda(318)=  0.122221423590
  lambda(319)=  0.127760855118
  lambda(320)=  0.132190813646
  lambda(321)=  0.134032745317
  lambda(322)=  0.135485389142
  lambda(323)=  0.138364965453
  lambda(324)=  0.140308047070
  lambda(325)=  0.143647591018
  lambda(326)=  0.145330540213
  lambda(327)=  0.148574738757
  lambda(328)=  0.154718070443
  lambda(329)=  0.157495879173
  lambda(330)=  0.162093300331
  lambda(331)=  0.163515575142
  lambda(332)=  0.164850070732
  lambda(333)=  0.167477227335
  lambda(334)=  0.168736766086
  lambda(335)=  0.171588944101
  lambda(336)=  0.173634141648
  lambda(337)=  0.174038117951
  lambda(338)=  0.176602013990
  lambda(339)=  0.178141997481
  lambda(340)=  0.181543713939
  lambda(341)=  0.188453425187
  lambda(342)=  0.190047446388
  lambda(343)=  0.193583970513
  lambda(344)=  0.196572070442
  lambda(345)=  0.197364861130
  lambda(346)=  0.202116791315
  lambda(347)=  0.209364638200
  lambda(348)=  0.244807087732
  lambda(349)=  0.413748197835
  lambda(350)=  0.544835199214
  lambda(351)=  1.000000000000
  lambda(352)=  1.000000000000
  lambda(353)=  1.000000000000
  lambda(354)=  1.000000000000
  lambda(355)=  1.000000000000
  lambda(356)=  1.000000000000
  lambda(357)=  1.000000000000
  lambda(358)=  1.000000000000
  lambda(359)=  1.000000000000
  lambda(360)=  1.000000000000
  lambda(361)=  1.000000000000
  lambda(362)=  1.000000000000
  lambda(363)=  1.000000000000
  lambda(364)=  1.000000000000
  lambda(365)=  1.000000000000
  lambda(366)=  1.000000000000
  lambda(367)=  1.000000000000
  lambda(368)=  1.000000000000
  lambda(369)=  1.000000000000
  lambda(370)=  1.000000000000
  lambda(371)=  1.000000000000
  lambda(372)=  1.000000000000
  lambda(373)=  1.000000000000
  lambda(374)=  1.000000000000
  lambda(375)=  1.000000000000
  lambda(376)=  1.000000000000
  lambda(377)=  1.000000000000
  lambda(378)=  1.000000000000
 done

                   Extraction of optimally-connected subspace                  
                   ------------------------------------------                  
  Original eigenvalues inside outer window:

  K-point   1   -15.99070 -15.04563 -14.76834 -14.71550 -14.43197 -14.34472 -14.12020 -14.04293 -14.00707 -13.97994 -13.83299 -13.79947 -13.64655 -13.51833 -13.51314 -13.50538 -13.44957 -13.40279 -13.36496 -13.35356
-13.32901 -13.32408 -13.31601 -13.25399 -13.24667 -13.23294 -13.19865 -13.16959 -13.16038 -13.15262 -13.12421 -13.11385  -7.86804  -7.45745  -7.14698  -6.73410  -6.49101  -6.41863  -6.31014  -6.12840
 -6.08087  -6.03187  -5.92823  -5.89849  -5.83542  -5.72198  -5.70641  -5.52332  -5.48963  -5.42755  -5.42571  -5.39580  -5.37587  -5.33590  -5.30012  -5.28487  -5.27646  -5.23224  -5.22449  -5.15349
 -5.13248  -5.04008  -5.01746  -4.91649  -4.85611  -4.76361  -4.70418  -4.61178  -4.58744  -4.50433  -4.47057  -4.42252  -4.40236  -4.37598  -4.36171  -4.32093  -4.30602  -4.25468  -4.19922  -4.12279
 -4.05125  -4.00866  -3.98976  -3.94671  -3.93493  -3.89091  -3.86774  -3.80487  -3.76987  -3.76004  -3.73176  -3.67504  -3.66401  -3.63510  -3.58115  -3.56952  -3.54132  -3.52369  -3.51128  -3.39322
 -3.38637  -3.28095  -3.22142  -2.90236  -2.89713  -2.87212  -2.85435  -2.83278  -2.81449  -2.73688  -2.67239  -2.65326  -2.63718  -2.62632  -2.58081  -2.54241  -2.52801  -2.46827  -2.44477  -2.41486
 -2.37899  -2.33580  -2.32003  -2.29414  -2.27112  -2.26038  -2.24110  -2.19400  -2.15220  -2.11188  -2.06786  -1.97851  -1.93179  -1.83845  -1.81418  -1.67994  -1.56412  -1.36116  -1.32699  -1.29878
 -1.28021  -1.25959  -1.23351  -1.17968  -1.12202  -1.04968  -1.01460  -0.97163  -0.95294  -0.86912  -0.84089  -0.81622  -0.67245  -0.63766   0.71334   0.84280   1.10669   1.15902   1.21357   1.22439
  1.28451   1.29330   1.31685   1.32861   1.33664   1.34702   1.37302   1.38369   1.42400   1.45142   1.47716   1.48737   1.50932   1.52334   1.52738   1.54917   1.58490   1.69992   1.71805   1.75417
  1.79005   1.82933   1.84336   1.85652   1.88540   1.90132   1.90760   1.92181   1.93837   1.95291   1.96135   1.98702   2.01471   2.05318   2.06331   2.07550   2.09958   2.11260   2.13724   2.16298
  2.51428   2.54152   2.55419   2.65928   2.70561   2.71681   2.74409   2.76317   2.82689   2.97863   3.13655   3.16708   3.19503   3.22946   3.23522   3.28190   3.31787   3.32749   3.36862   3.51904
  3.57645   3.78437   3.89057   4.22848   4.32757   4.33775   4.38511   4.42097   4.45616   4.46357   4.52163   4.72235   4.74521   4.76925   4.78160   4.79408   4.79984   4.81687   4.92145   4.94255
  5.00413   5.03795   5.05221   5.07065   5.13640   5.24560   5.47599   5.51505   5.61130   5.66505   5.71049   5.72772   5.73728   5.75697   5.80889   5.81400   5.83388   5.85970   5.87132   5.89524
  5.93995   5.96935   6.07925   6.09137   6.09755   6.12826   6.13868   6.16987   6.18277   6.18816   6.22242   6.24378   6.26401   6.28691   6.29479   6.36871   6.38669   6.44154   6.48037   6.50500
  6.51126   6.51593   6.61296   6.70745   6.71973   6.73352   6.80673   6.85628   6.86394   6.89253   6.89695   6.91778   6.93157   6.93866   6.95197   6.95524   6.96022   6.99248   7.13152   7.15883
  7.17220   7.18779   7.23014   7.25469   7.26313   7.27259   7.30991   7.33541   7.35135   7.39194   7.47290   7.49394   7.51587   7.53711   7.54098   7.55925   7.57007   7.58762   7.59035   7.60065
  7.60782   7.61610   7.62863   7.63460   7.65225   7.66387   7.69525   7.73173   7.77700   7.83836   7.86123   7.86821   7.88030   7.89032   7.92697   7.98384   7.98920   7.99141   8.08636   8.09609
  8.11409   8.19324   8.26582   8.28350   8.30671   8.32485   8.33674   8.35695   8.37715   8.38387   8.39763   8.40547   8.40944   8.47230   8.48677   8.49169   8.51189   8.52842   8.54993   8.71933
  8.78045   8.82416   8.84078   8.85944   8.87529   8.88860   8.90624   8.90867   8.94401   8.99974   9.02480   9.05800   9.07988   9.09017   9.10358   9.13622   9.15360   9.18075
 +---------------------------------------------------------------------+<-- DIS
 |  Iter     Omega_I(i-1)      Omega_I(i)      Delta (frac.)    Time   |<-- DIS
 +---------------------------------------------------------------------+<-- DIS
       1     314.15349182     311.86479302       7.339E-03      0.00    <-- DIS
       2     312.26143062     311.15213633       3.565E-03      0.20    <-- DIS
       3     311.47947215     310.64509758       2.686E-03      0.41    <-- DIS
       4     310.89024179     310.26073547       2.029E-03      0.61    <-- DIS
       5     310.44140190     309.95979052       1.554E-03      0.82    <-- DIS
       6     310.09383709     309.71850872       1.212E-03      1.02    <-- DIS
       7     309.81964676     309.52142743       9.635E-04      1.22    <-- DIS
       8     309.59932628     309.35804001       7.800E-04      1.42    <-- DIS
       9     309.41928314     309.22095305       6.414E-04      1.62    <-- DIS
      10     309.26997249     309.10480198       5.344E-04      1.83    <-- DIS
      11     309.14459313     309.00558793       4.498E-04      2.03    <-- DIS
      12     309.03820620     308.92025920       3.818E-04      2.24    <-- DIS
      13     308.94714870     308.84643906       3.261E-04      2.44    <-- DIS
      14     308.86864464     308.78224398       2.798E-04      2.64    <-- DIS
      15     308.80054634     308.72615895       2.409E-04      2.84    <-- DIS
      16     308.74116040     308.67694995       2.080E-04      3.05    <-- DIS
      17     308.68912910     308.63360110       1.799E-04      3.25    <-- DIS
      18     308.64334806     308.59526856       1.558E-04      3.45    <-- DIS
      19     308.60290798     308.56124604       1.350E-04      3.65    <-- DIS
      20     308.56705255     308.53093859       1.171E-04      3.86    <-- DIS
      21     308.53514735     308.50384229       1.015E-04      4.06    <-- DIS
      22     308.50665653     308.47952833       8.794E-05      4.26    <-- DIS
      23     308.48112486     308.45763036       7.617E-05      4.47    <-- DIS
      24     308.45816370     308.43783429       6.591E-05      4.67    <-- DIS
      25     308.43743997     308.41987006       5.697E-05      4.87    <-- DIS
      26     308.41866718     308.40350483       4.916E-05      5.07    <-- DIS
      27     308.40159822     308.38853736       4.235E-05      5.28    <-- DIS
      28     308.38601938     308.37479339       3.640E-05      5.48    <-- DIS
      29     308.37174544     308.36212172       3.121E-05      5.68    <-- DIS
      30     308.35861556     308.35039094       2.667E-05      5.89    <-- DIS
      31     308.34648980     308.33948664       2.271E-05      6.09    <-- DIS
      32     308.33524625     308.32930907       1.926E-05      6.30    <-- DIS
      33     308.32477850     308.31977114       1.624E-05      6.50    <-- DIS
      34     308.31499357     308.31079672       1.361E-05      6.70    <-- DIS
      35     308.30581009     308.30231915       1.132E-05      6.90    <-- DIS
      36     308.29715679     308.29428001       9.331E-06      7.11    <-- DIS
      37     308.28897115     308.28662803       7.600E-06      7.31    <-- DIS
      38     308.28119825     308.27931817       6.099E-06      7.51    <-- DIS
      39     308.27378984     308.27231079       4.798E-06      7.71    <-- DIS
      40     308.26670341     308.26557100       3.674E-06      7.92    <-- DIS
      41     308.25990154     308.25906802       2.704E-06      8.12    <-- DIS
      42     308.25335121     308.25277469       1.870E-06      8.33    <-- DIS
      43     308.24702325     308.24666700       1.156E-06      8.53    <-- DIS
      44     308.24089189     308.24072369       5.457E-07      8.73    <-- DIS
      45     308.23493431     308.23492596       2.710E-08      8.94    <-- DIS
      46     308.22913032     308.22925711      -4.114E-07      9.14    <-- DIS
      47     308.22346198     308.22370231      -7.798E-07      9.35    <-- DIS
      48     308.21791338     308.21824840      -1.087E-06      9.55    <-- DIS
      49     308.21247039     308.21288365      -1.341E-06      9.75    <-- DIS
      50     308.20712043     308.20759760      -1.548E-06      9.95    <-- DIS
      51     308.20185230     308.20238095      -1.715E-06     10.15    <-- DIS
      52     308.19665600     308.19722539      -1.847E-06     10.35    <-- DIS
      53     308.19152265     308.19212347      -1.950E-06     10.56    <-- DIS
      54     308.18644428     308.18706856      -2.026E-06     10.76    <-- DIS
      55     308.18141379     308.18205471      -2.080E-06     10.96    <-- DIS
      56     308.17642482     308.17707658      -2.115E-06     11.16    <-- DIS
      57     308.17147170     308.17212942      -2.134E-06     11.36    <-- DIS
      58     308.16654933     308.16720893      -2.140E-06     11.56    <-- DIS
      59     308.16165315     308.16231128      -2.136E-06     11.76    <-- DIS
      60     308.15677908     308.15743303      -2.122E-06     11.96    <-- DIS
      61     308.15192348     308.15257108      -2.102E-06     12.17    <-- DIS
      62     308.14708306     308.14772268      -2.076E-06     12.37    <-- DIS
      63     308.14225490     308.14288533      -2.046E-06     12.57    <-- DIS
      64     308.13743637     308.13805683      -2.014E-06     12.77    <-- DIS
      65     308.13262515     308.13323519      -1.980E-06     12.97    <-- DIS
      66     308.12781913     308.12841863      -1.946E-06     13.17    <-- DIS
      67     308.12301647     308.12360557      -1.912E-06     13.38    <-- DIS
      68     308.11821551     308.11879462      -1.880E-06     13.58    <-- DIS
      69     308.11341478     308.11398453      -1.849E-06     13.78    <-- DIS
      70     308.10861300     308.10917421      -1.821E-06     13.98    <-- DIS
      71     308.10380903     308.10436269      -1.797E-06     14.18    <-- DIS
      72     308.09900188     308.09954913      -1.776E-06     14.38    <-- DIS
      73     308.09419070     308.09473281      -1.760E-06     14.58    <-- DIS
      74     308.08937474     308.08991310      -1.747E-06     14.78    <-- DIS
      75     308.08455338     308.08508948      -1.740E-06     14.99    <-- DIS
      76     308.07972609     308.08026151      -1.738E-06     15.19    <-- DIS
      77     308.07489244     308.07542882      -1.741E-06     15.39    <-- DIS
      78     308.07005209     308.07059112      -1.750E-06     15.59    <-- DIS
      79     308.06520478     308.06574821      -1.764E-06     15.79    <-- DIS
      80     308.06035032     308.06089993      -1.784E-06     15.99    <-- DIS
      81     308.05548858     308.05604618      -1.810E-06     16.20    <-- DIS
      82     308.05061952     308.05118694      -1.842E-06     16.40    <-- DIS
      83     308.04574315     308.04632220      -1.880E-06     16.60    <-- DIS
      84     308.04085952     308.04145203      -1.923E-06     16.80    <-- DIS
      85     308.03596875     308.03657653      -1.973E-06     17.00    <-- DIS
      86     308.03107100     308.03169585      -2.029E-06     17.20    <-- DIS
      87     308.02616649     308.02681018      -2.090E-06     17.41    <-- DIS
      88     308.02125547     308.02191974      -2.157E-06     17.61    <-- DIS
      89     308.01633823     308.01702478      -2.229E-06     17.82    <-- DIS
      90     308.01141512     308.01212559      -2.307E-06     18.02    <-- DIS
      91     308.00648648     308.00722250      -2.390E-06     18.22    <-- DIS
      92     308.00155275     308.00231585      -2.478E-06     18.42    <-- DIS
      93     307.99661435     307.99740602      -2.570E-06     18.63    <-- DIS
      94     307.99167175     307.99249342      -2.668E-06     18.83    <-- DIS
      95     307.98672547     307.98757848      -2.770E-06     19.03    <-- DIS
      96     307.98177603     307.98266166      -2.876E-06     19.23    <-- DIS
      97     307.97682401     307.97774346      -2.985E-06     19.43    <-- DIS
      98     307.97186998     307.97282437      -3.099E-06     19.64    <-- DIS
      99     307.96691458     307.96790495      -3.216E-06     19.84    <-- DIS
     100     307.96195845     307.96298575      -3.336E-06     20.04    <-- DIS
     101     307.95700226     307.95806736      -3.459E-06     20.24    <-- DIS
     102     307.95204674     307.95315040      -3.584E-06     20.45    <-- DIS
     103     307.94709260     307.94823551      -3.711E-06     20.65    <-- DIS
     104     307.94214061     307.94332335      -3.841E-06     20.86    <-- DIS
     105     307.93719156     307.93841464      -3.972E-06     21.06    <-- DIS
     106     307.93224626     307.93351008      -4.104E-06     21.26    <-- DIS
     107     307.92730556     307.92861044      -4.238E-06     21.46    <-- DIS
     108     307.92237033     307.92371649      -4.372E-06     21.67    <-- DIS
     109     307.91744148     307.91882904      -4.506E-06     21.87    <-- DIS
     110     307.91251993     307.91394894      -4.641E-06     22.07    <-- DIS
     111     307.90760665     307.90907706      -4.775E-06     22.27    <-- DIS
     112     307.90270262     307.90421430      -4.910E-06     22.48    <-- DIS
     113     307.89780886     307.89936158      -5.043E-06     22.68    <-- DIS
     114     307.89292642     307.89451989      -5.175E-06     22.89    <-- DIS
     115     307.88805638     307.88969021      -5.307E-06     23.09    <-- DIS
     116     307.88319983     307.88487357      -5.436E-06     23.29    <-- DIS
     117     307.87835791     307.88007103      -5.564E-06     23.49    <-- DIS
     118     307.87353178     307.87528368      -5.690E-06     23.69    <-- DIS
     119     307.86872263     307.87051264      -5.814E-06     23.89    <-- DIS
     120     307.86393168     307.86575906      -5.936E-06     24.09    <-- DIS
     121     307.85916015     307.86102412      -6.055E-06     24.29    <-- DIS
     122     307.85440931     307.85630903      -6.171E-06     24.50    <-- DIS
     123     307.84968046     307.85161502      -6.284E-06     24.70    <-- DIS
     124     307.84497489     307.84694335      -6.394E-06     24.90    <-- DIS
     125     307.84029393     307.84229531      -6.501E-06     25.10    <-- DIS
     126     307.83563893     307.83767219      -6.605E-06     25.30    <-- DIS
     127     307.83101125     307.83307533      -6.705E-06     25.51    <-- DIS
     128     307.82641226     307.82850606      -6.802E-06     25.71    <-- DIS
     129     307.82184335     307.82396575      -6.895E-06     25.91    <-- DIS
     130     307.81730591     307.81945576      -6.984E-06     26.11    <-- DIS
     131     307.81280135     307.81497747      -7.070E-06     26.32    <-- DIS
     132     307.80833106     307.81053226      -7.151E-06     26.52    <-- DIS
     133     307.80389645     307.80612154      -7.229E-06     26.72    <-- DIS
     134     307.79949892     307.80174668      -7.303E-06     26.93    <-- DIS
     135     307.79513986     307.79740907      -7.372E-06     27.13    <-- DIS
     136     307.79082067     307.79311011      -7.438E-06     27.33    <-- DIS
     137     307.78654270     307.78885115      -7.500E-06     27.53    <-- DIS
     138     307.78230733     307.78463355      -7.558E-06     27.74    <-- DIS
     139     307.77811588     307.78045866      -7.612E-06     27.94    <-- DIS
     140     307.77396967     307.77632780      -7.662E-06     28.15    <-- DIS
     141     307.76986998     307.77224226      -7.708E-06     28.35    <-- DIS
     142     307.76581808     307.76820331      -7.750E-06     28.55    <-- DIS
     143     307.76181519     307.76421219      -7.788E-06     28.75    <-- DIS
     144     307.75786250     307.76027010      -7.823E-06     28.95    <-- DIS
     145     307.75396116     307.75637820      -7.854E-06     29.16    <-- DIS
     146     307.75011226     307.75253762      -7.881E-06     29.36    <-- DIS
     147     307.74631688     307.74874943      -7.904E-06     29.56    <-- DIS
     148     307.74257602     307.74501467      -7.924E-06     29.76    <-- DIS
     149     307.73889064     307.74133430      -7.941E-06     29.97    <-- DIS
     150     307.73526165     307.73770927      -7.954E-06     30.17    <-- DIS
     151     307.73168991     307.73414045      -7.963E-06     30.38    <-- DIS
     152     307.72817619     307.73062863      -7.969E-06     30.58    <-- DIS
     153     307.72472123     307.72717458      -7.972E-06     30.78    <-- DIS
     154     307.72132571     307.72377899      -7.972E-06     30.98    <-- DIS
     155     307.71799022     307.72044249      -7.969E-06     31.18    <-- DIS
     156     307.71471532     307.71716564      -7.963E-06     31.39    <-- DIS
     157     307.71150147     307.71394894      -7.954E-06     31.59    <-- DIS
     158     307.70834909     307.71079282      -7.942E-06     31.80    <-- DIS
     159     307.70525851     307.70769765      -7.927E-06     32.00    <-- DIS
     160     307.70223002     307.70466372      -7.909E-06     32.20    <-- DIS
     161     307.69926382     307.70169125      -7.889E-06     32.40    <-- DIS
     162     307.69636005     307.69878043      -7.866E-06     32.61    <-- DIS
     163     307.69351879     307.69593133      -7.841E-06     32.81    <-- DIS
     164     307.69074005     307.69314399      -7.813E-06     33.01    <-- DIS
     165     307.68802376     307.69041837      -7.783E-06     33.21    <-- DIS
     166     307.68536980     307.68775437      -7.750E-06     33.41    <-- DIS
     167     307.68277800     307.68515182      -7.715E-06     33.62    <-- DIS
     168     307.68024811     307.68261051      -7.678E-06     33.82    <-- DIS
     169     307.67777981     307.68013013      -7.639E-06     34.02    <-- DIS
     170     307.67537276     307.67771036      -7.598E-06     34.23    <-- DIS
     171     307.67302652     307.67535078      -7.554E-06     34.43    <-- DIS
     172     307.67074062     307.67305095      -7.509E-06     34.63    <-- DIS
     173     307.66851454     307.67081035      -7.462E-06     34.84    <-- DIS
     174     307.66634770     307.66862843      -7.413E-06     35.04    <-- DIS
     175     307.66423947     307.66650458      -7.362E-06     35.24    <-- DIS
     176     307.66218920     307.66443815      -7.310E-06     35.44    <-- DIS
     177     307.66019616     307.66242845      -7.256E-06     35.65    <-- DIS
     178     307.65825962     307.66047475      -7.200E-06     35.85    <-- DIS
     179     307.65637878     307.65857628      -7.143E-06     36.05    <-- DIS
     180     307.65455281     307.65673224      -7.084E-06     36.25    <-- DIS
     181     307.65278087     307.65494178      -7.024E-06     36.45    <-- DIS
     182     307.65106208     307.65320405      -6.962E-06     36.65    <-- DIS
     183     307.64939552     307.65151815      -6.899E-06     36.85    <-- DIS
     184     307.64778025     307.64988317      -6.835E-06     37.05    <-- DIS
     185     307.64621534     307.64829816      -6.770E-06     37.26    <-- DIS
     186     307.64469979     307.64676217      -6.704E-06     37.46    <-- DIS
     187     307.64323262     307.64527424      -6.636E-06     37.66    <-- DIS
     188     307.64181282     307.64383337      -6.568E-06     37.86    <-- DIS
     189     307.64043938     307.64243856      -6.498E-06     38.06    <-- DIS
     190     307.63911128     307.64108880      -6.428E-06     38.26    <-- DIS
     191     307.63782747     307.63978309      -6.357E-06     38.47    <-- DIS
     192     307.63658692     307.63852039      -6.285E-06     38.67    <-- DIS
     193     307.63538859     307.63729969      -6.212E-06     38.87    <-- DIS
     194     307.63423144     307.63611997      -6.139E-06     39.07    <-- DIS
     195     307.63311443     307.63498019      -6.065E-06     39.28    <-- DIS
     196     307.63203652     307.63387933      -5.990E-06     39.48    <-- DIS
     197     307.63099666     307.63281639      -5.915E-06     39.68    <-- DIS
     198     307.62999384     307.63179034      -5.840E-06     39.88    <-- DIS
     199     307.62902704     307.63080019      -5.764E-06     40.08    <-- DIS
     200     307.62809524     307.62984493      -5.688E-06     40.29    <-- DIS
     201     307.62719743     307.62892358      -5.611E-06     40.49    <-- DIS
     202     307.62633263     307.62803517      -5.534E-06     40.69    <-- DIS
     203     307.62549986     307.62717873      -5.457E-06     40.89    <-- DIS
     204     307.62469815     307.62635331      -5.380E-06     41.10    <-- DIS
     205     307.62392655     307.62555797      -5.303E-06     41.30    <-- DIS
     206     307.62318412     307.62479180      -5.226E-06     41.50    <-- DIS
     207     307.62246994     307.62405389      -5.149E-06     41.70    <-- DIS
     208     307.62178312     307.62334334      -5.072E-06     41.91    <-- DIS
     209     307.62112275     307.62265929      -4.995E-06     42.11    <-- DIS
     210     307.62048798     307.62200088      -4.918E-06     42.31    <-- DIS
     211     307.61987794     307.62136726      -4.841E-06     42.51    <-- DIS
     212     307.61929181     307.62075763      -4.765E-06     42.71    <-- DIS
     213     307.61872878     307.62017117      -4.689E-06     42.91    <-- DIS
     214     307.61818804     307.61960711      -4.613E-06     43.12    <-- DIS
     215     307.61766881     307.61906467      -4.538E-06     43.32    <-- DIS
     216     307.61717036     307.61854312      -4.463E-06     43.52    <-- DIS
     217     307.61669192     307.61804172      -4.388E-06     43.72    <-- DIS
     218     307.61623279     307.61755977      -4.314E-06     43.92    <-- DIS
     219     307.61579227     307.61709658      -4.240E-06     44.12    <-- DIS
     220     307.61536967     307.61665147      -4.167E-06     44.32    <-- DIS
     221     307.61496434     307.61622380      -4.094E-06     44.52    <-- DIS
     222     307.61457564     307.61581293      -4.022E-06     44.72    <-- DIS
     223     307.61420293     307.61541825      -3.951E-06     44.92    <-- DIS
     224     307.61384562     307.61503916      -3.880E-06     45.13    <-- DIS
     225     307.61350313     307.61467508      -3.810E-06     45.33    <-- DIS
     226     307.61317488     307.61432545      -3.740E-06     45.53    <-- DIS
     227     307.61286032     307.61398973      -3.672E-06     45.73    <-- DIS
     228     307.61255893     307.61366740      -3.603E-06     45.93    <-- DIS
     229     307.61227018     307.61335794      -3.536E-06     46.13    <-- DIS
     230     307.61199359     307.61306086      -3.470E-06     46.34    <-- DIS
     231     307.61172867     307.61277568      -3.404E-06     46.54    <-- DIS
     232     307.61147495     307.61250196      -3.339E-06     46.74    <-- DIS
     233     307.61123200     307.61223923      -3.274E-06     46.94    <-- DIS
     234     307.61099937     307.61198708      -3.211E-06     47.14    <-- DIS
     235     307.61077664     307.61174509      -3.148E-06     47.34    <-- DIS
     236     307.61056343     307.61151286      -3.086E-06     47.54    <-- DIS
     237     307.61035933     307.61129000      -3.025E-06     47.74    <-- DIS
     238     307.61016398     307.61107614      -2.965E-06     47.94    <-- DIS
     239     307.60997701     307.61087093      -2.906E-06     48.14    <-- DIS
     240     307.60979808     307.61067402      -2.848E-06     48.35    <-- DIS
     241     307.60962686     307.61048508      -2.790E-06     48.55    <-- DIS
     242     307.60946302     307.61030378      -2.733E-06     48.75    <-- DIS
     243     307.60930625     307.61012982      -2.677E-06     48.95    <-- DIS
     244     307.60915627     307.60996291      -2.622E-06     49.15    <-- DIS
     245     307.60901277     307.60980275      -2.568E-06     49.35    <-- DIS
     246     307.60887549     307.60964908      -2.515E-06     49.55    <-- DIS
     247     307.60874417     307.60950163      -2.462E-06     49.75    <-- DIS
     248     307.60861855     307.60936014      -2.411E-06     49.95    <-- DIS
     249     307.60849839     307.60922438      -2.360E-06     50.15    <-- DIS
     250     307.60838346     307.60909410      -2.310E-06     50.36    <-- DIS
     251     307.60827352     307.60896909      -2.261E-06     50.56    <-- DIS
     252     307.60816838     307.60884912      -2.213E-06     50.76    <-- DIS
     253     307.60806781     307.60873399      -2.166E-06     50.96    <-- DIS
     254     307.60797163     307.60862351      -2.119E-06     51.16    <-- DIS
     255     307.60787964     307.60851747      -2.074E-06     51.36    <-- DIS
     256     307.60779166     307.60841570      -2.029E-06     51.57    <-- DIS
     257     307.60770752     307.60831802      -1.985E-06     51.77    <-- DIS
     258     307.60762705     307.60822426      -1.941E-06     51.97    <-- DIS
     259     307.60755010     307.60813426      -1.899E-06     52.17    <-- DIS
     260     307.60747650     307.60804786      -1.857E-06     52.37    <-- DIS
     261     307.60740611     307.60796491      -1.817E-06     52.57    <-- DIS
     262     307.60733879     307.60788528      -1.777E-06     52.77    <-- DIS
     263     307.60727441     307.60780881      -1.737E-06     52.97    <-- DIS
     264     307.60721284     307.60773539      -1.699E-06     53.17    <-- DIS
     265     307.60715395     307.60766489      -1.661E-06     53.37    <-- DIS
     266     307.60709763     307.60759718      -1.624E-06     53.58    <-- DIS
[...]
  WF centre and spread   93  (  1.728091,  1.010278,  0.058147 )     1.79575315
  WF centre and spread   94  (  1.723109,  0.996847,  3.479636 )     2.01197156
  WF centre and spread   95  (  1.726363,  0.986081,  3.339999 )     1.80381274
  WF centre and spread   96  (  1.726362,  1.006883,  3.338269 )     1.80831152
  WF centre and spread   97  (  5.168453,  0.974875, -0.136244 )     2.01890150
  WF centre and spread   98  (  5.157241,  0.964115,  0.002738 )     1.79428017
  WF centre and spread   99  (  5.166186,  0.980022,  0.003161 )     1.79370372
  WF centre and spread  100  (  5.165934,  1.061980,  3.460812 )     2.02046272
  WF centre and spread  101  (  5.162347,  1.050283,  3.319016 )     1.79506685
  WF centre and spread  102  (  5.164894,  1.055414,  3.321399 )     1.80646612
  WF centre and spread  103  ( -5.167866,  0.977173, -0.144479 )     1.99472439
  WF centre and spread  104  ( -5.155284,  0.966697,  0.001279 )     1.79842564
  WF centre and spread  105  ( -5.165367,  0.976147,  0.001295 )     1.79539311
  WF centre and spread  106  ( -5.159231,  1.055389,  3.463921 )     2.01857480
  WF centre and spread  107  ( -5.157878,  1.048359,  3.319162 )     1.79346765
  WF centre and spread  108  ( -5.161582,  1.047265,  3.324378 )     1.83277999
  WF centre and spread  109  ( -1.731910,  1.001731, -0.084004 )     2.01372671
  WF centre and spread  110  ( -1.727779,  0.987369,  0.061798 )     1.80264264
  WF centre and spread  111  ( -1.727975,  1.005920,  0.057801 )     1.79310516
  WF centre and spread  112  ( -1.731394,  0.985675,  3.480594 )     2.02402032
  WF centre and spread  113  ( -1.728452,  0.980797,  3.339528 )     1.79951721
  WF centre and spread  114  ( -1.729857,  0.995882,  3.344286 )     1.81222435
  WF centre and spread  115  ( -3.426682,  3.986422, -0.141029 )     2.00476188
  WF centre and spread  116  ( -3.421035,  3.977501,  0.004418 )     1.80432266
  WF centre and spread  117  ( -3.423568,  3.992825, -0.000973 )     1.78810524
  WF centre and spread  118  ( -3.500674,  3.943322,  3.465335 )     2.01565206
  WF centre and spread  119  ( -3.487512,  3.932168,  3.317634 )     1.80484864
  WF centre and spread  120  ( -3.500541,  3.961515,  3.325606 )     1.81878777
  WF centre and spread  121  (  1.742423, -4.961550, -0.142492 )     2.00053798
  WF centre and spread  122  (  1.738930, -4.965551, -0.003365 )     1.78809814
  WF centre and spread  123  (  1.738315, -4.948100,  0.006892 )     1.81385057
  WF centre and spread  124  (  1.654588, -5.007266,  3.468468 )     2.01329905
  WF centre and spread  125  (  1.657927, -5.009945,  3.331396 )     1.79979035
  WF centre and spread  126  (  1.660411, -4.985643,  3.313176 )     1.80304219
  WF centre and spread  127  ( -0.007352, -2.003470, -0.082085 )     2.02373193
  WF centre and spread  128  ( -0.002706, -2.009526,  0.057388 )     1.80487774
  WF centre and spread  129  ( -0.003720, -1.984773,  0.066385 )     1.80465236
  WF centre and spread  130  ( -0.013495, -1.999740,  3.488372 )     2.01921397
  WF centre and spread  131  ( -0.011383, -2.006369,  3.348124 )     1.81040028
  WF centre and spread  132  ( -0.005186, -1.985372,  3.346618 )     1.80787811
  WF centre and spread  133  ( -3.497218, -2.013149, -0.020032 )     2.01071814
  WF centre and spread  134  ( -3.494522, -2.031157,  0.116767 )     1.81853514
  WF centre and spread  135  ( -3.492937, -2.002452,  0.119867 )     1.79224760
  WF centre and spread  136  ( -3.405324, -2.277661,  3.646825 )     2.47649349
  WF centre and spread  137  ( -3.337202, -1.949992,  3.443016 )     1.76375026
  WF centre and spread  138  ( -3.423441, -1.805039,  3.585701 )     1.80319549
  WF centre and spread  139  (  0.008195,  9.896899,  0.070693 )     2.05939432
  WF centre and spread  140  (  0.007873,  9.892108,  0.182241 )     1.84032332
  WF centre and spread  141  (  0.002833,  9.920161,  0.179085 )     1.78957260
  WF centre and spread  142  (  0.003004, 10.280185,  3.645452 )     1.96176862
  WF centre and spread  143  (  0.016965, 10.206592,  3.539315 )     1.77417343
  WF centre and spread  144  (  0.007716, 10.137950,  3.524669 )     1.93540370
  WF centre and spread  145  (  3.496993, -2.020654, -0.027154 )     2.00574187
  WF centre and spread  146  (  3.495112, -2.026748,  0.113462 )     1.80153863
  WF centre and spread  147  (  3.492920, -2.005117,  0.116649 )     1.79674660
  WF centre and spread  148  (  3.398327, -1.965703,  3.551747 )     2.00211726
  WF centre and spread  149  (  3.417808, -1.979397,  3.404347 )     1.81523838
  WF centre and spread  150  (  3.397550, -1.952146,  3.403615 )     1.80029280
  WF centre and spread  151  (  0.001436, -7.961281, -0.201307 )     2.00068134
  WF centre and spread  152  ( -0.003307, -7.967916, -0.063099 )     1.80746484
  WF centre and spread  153  (  0.001002, -7.948490, -0.066965 )     1.80448573
  WF centre and spread  154  (  0.000394, -7.951959,  3.444239 )     2.01510625
  WF centre and spread  155  ( -0.007731, -7.962143,  3.304084 )     1.80613763
  WF centre and spread  156  ( -0.003944, -7.937966,  3.305719 )     1.80150462
  WF centre and spread  157  ( -1.745318, -4.975386, -0.124910 )     2.04357663
  WF centre and spread  158  ( -1.736869, -4.973434,  0.014995 )     1.83768636
  WF centre and spread  159  ( -1.746867, -4.937958,  0.013401 )     1.84852059
  WF centre and spread  160  ( -1.842428, -4.895930,  3.481919 )     2.30189195
  WF centre and spread  161  ( -1.516999, -4.935983,  3.415688 )     1.77293663
  WF centre and spread  162  ( -1.641509, -5.146222,  3.427250 )     1.79104309
  WF centre and spread  163  (  1.681525,  6.978862,  0.061889 )     2.04346068
  WF centre and spread  164  (  1.693884,  6.967579,  0.188648 )     1.79882693
  WF centre and spread  165  (  1.690877,  7.001308,  0.179898 )     1.81155227
  WF centre and spread  166  (  2.398407,  7.072284,  4.102776 )     2.33864589
  WF centre and spread  167  (  0.186190,  7.835308,  5.064173 )     2.37856038
  WF centre and spread  168  (  1.924330,  6.562611,  3.676658 )     1.68827400
  WF centre and spread  169  (  3.429753,  4.002677, -0.126588 )     2.06075181
  WF centre and spread  170  (  3.421140,  3.981068,  0.007002 )     1.80841081
  WF centre and spread  171  (  3.423129,  4.006481,  0.020372 )     1.90760013
  WF centre and spread  172  (  3.508615,  3.946821,  3.463250 )     2.02722490
  WF centre and spread  173  (  3.483971,  3.936761,  3.320042 )     1.81889141
  WF centre and spread  174  (  3.500000,  3.981732,  3.331782 )     1.84014494
  WF centre and spread  175  ( -0.001867,  4.036433, -0.025999 )     2.00907354
  WF centre and spread  176  (  0.002483,  4.022553,  0.119216 )     1.80127754
  WF centre and spread  177  ( -0.000702,  4.052925,  0.115261 )     1.82587483
  WF centre and spread  178  ( -0.000242,  3.927799,  3.551098 )     2.01635945
  WF centre and spread  179  (  0.007465,  3.914738,  3.402591 )     1.81662318
  WF centre and spread  180  (  0.004546,  3.976816,  3.407228 )     1.82859296
  WF centre and spread  181  ( -1.684643,  6.982360,  0.058976 )     2.04783087
  WF centre and spread  182  ( -1.690446,  6.973540,  0.175268 )     1.78722057
  WF centre and spread  183  ( -1.687771,  6.994619,  0.173170 )     1.80872948
  WF centre and spread  184  ( -2.011620,  6.818469,  3.634157 )     1.97449945
  WF centre and spread  185  ( -1.911669,  6.865187,  3.515639 )     1.89455539
  WF centre and spread  186  ( -1.930268,  6.798112,  3.548589 )     1.77470681
  Sum of centres and spreads (-25.938790, 32.492618,345.014317 )   332.00933001
 
         Spreads (Ang^2)       Omega I      =   307.605823076
        ================       Omega D      =     0.007885161
                               Omega OD     =    24.395621967
    Final Spread (Ang^2)       Omega Total  =   332.009330203
 ------------------------------------------------------------------------------
 Final centres (translated to home cell for writing xyz file)
  WF centre    1  (  0.003661,  7.953890,  3.831253 )
  WF centre    2  ( -0.028893,  7.959861,  4.004949 )
  WF centre    3  (  0.003799,  7.986355,  3.992792 )
  WF centre    4  ( -0.008992,  7.874387,  3.907872 )
  WF centre    5  (  0.056327,  8.007734,  3.893411 )
  WF centre    6  ( -3.492274, -3.985537,  4.015785 )
  WF centre    7  ( -3.490166, -4.014111,  3.927119 )
  WF centre    8  ( -3.535662, -3.954707,  3.986011 )
  WF centre    9  ( -3.792845, -4.185658,  3.825639 )
  WF centre   10  ( -3.448905, -3.926592,  3.897537 )
  WF centre   11  ( -0.024986, -0.010068,  1.696561 )
  WF centre   12  (  0.001609, -0.004319,  1.699523 )
  WF centre   13  ( -0.000348,  0.003065,  1.701195 )
  WF centre   14  ( -0.014612,  0.134842,  1.694054 )
  WF centre   15  (  0.048465, -0.119025,  1.693916 )
  WF centre   16  (  3.437559, -0.010819,  1.707184 )
  WF centre   17  (  3.468587, -0.001079,  1.696721 )
  WF centre   18  (  3.471893,  0.011507,  1.703827 )
  WF centre   19  (  3.448581,  0.136571,  1.701046 )
  WF centre   20  (  3.528919, -0.110899,  1.703494 )
  WF centre   21  ( -6.872805,  0.036628,  1.676637 )
  WF centre   22  (  0.000886,-11.889250,  1.684633 )
  WF centre   23  (  0.001448,-11.876224,  1.684739 )
  WF centre   24  (  0.009978,-11.757686,  1.673560 )
  WF centre   25  ( -0.032610, 11.863041,  1.683505 )
  WF centre   26  ( -3.437954, -0.013969,  1.720004 )
  WF centre   27  ( -3.468350, -0.003822,  1.698369 )
  WF centre   28  ( -3.471470, -0.049649,  1.761883 )
  WF centre   29  ( -3.442533,  0.107835,  1.708458 )
  WF centre   30  ( -3.538506, -0.115554,  1.711664 )
  WF centre   31  ( -5.166418,  2.988078,  1.611511 )
  WF centre   32  (  1.690582, -8.939960,  1.620211 )
  WF centre   33  (  1.692553, -8.929823,  1.618933 )
  WF centre   34  (  1.710257, -8.804137,  1.617327 )
  WF centre   35  (  1.634793, -9.052284,  1.617338 )
  WF centre   36  (  0.005268, -6.009163,  1.615141 )
  WF centre   37  ( -0.028539, -6.003345,  1.644824 )
  WF centre   38  ( -0.005473, -5.992440,  1.633447 )
  WF centre   39  (  0.001292, -5.875194,  1.621612 )
  WF centre   40  ( -0.034511, -6.111577,  1.619200 )
  WF centre   41  ( -1.705830, -3.025761,  1.713331 )
  WF centre   42  ( -1.742170, -3.015434,  1.708914 )
  WF centre   43  ( -1.736266, -3.013058,  1.713258 )
  WF centre   44  ( -1.695277, -2.904601,  1.721877 )
  WF centre   45  ( -1.841628, -3.110889,  1.734180 )
  WF centre   46  ( -5.152764, -2.991124,  1.897662 )
  WF centre   47  (  1.718142,  8.940644,  1.870217 )
  WF centre   48  (  1.734766,  8.935707,  1.907856 )
  WF centre   49  ( -5.115638, -2.894784,  1.888527 )
  WF centre   50  (  1.637721,  8.822757,  1.951337 )
  WF centre   51  (  5.135188, -2.999937,  1.870468 )
  WF centre   52  ( -1.697056,  8.943826,  1.876407 )
  WF centre   53  ( -1.723086,  8.945667,  1.890931 )
  WF centre   54  (  5.129553, -2.889528,  1.860255 )
  WF centre   55  ( -1.602683,  8.857899,  1.897589 )
  WF centre   56  (  1.696642, -3.022153,  1.701619 )
  WF centre   57  (  1.731151, -3.014003,  1.705047 )
  WF centre   58  (  1.732486, -3.001060,  1.696726 )
  WF centre   59  (  1.705424, -2.876531,  1.708832 )
  WF centre   60  (  1.801276, -3.111726,  1.702775 )
  WF centre   61  (  5.161746,  2.989571,  1.613332 )
  WF centre   62  ( -1.689621, -8.939112,  1.620017 )
  WF centre   63  ( -1.692254, -8.927732,  1.618196 )
  WF centre   64  ( -1.710971, -8.802668,  1.617500 )
  WF centre   65  ( -1.641754, -9.051441,  1.616957 )
  WF centre   66  ( -3.416800, -5.999920,  1.675041 )
  WF centre   67  (  3.452300,  5.942761,  1.756561 )
  WF centre   68  ( -3.394352, -5.989779,  1.681381 )
  WF centre   69  ( -3.442640, -5.869610,  1.705925 )
  WF centre   70  ( -3.340217, -6.092475,  1.676403 )
  WF centre   71  (  0.012850,  5.960741,  1.875356 )
  WF centre   72  (  0.042889,  5.985318,  1.934344 )
  WF centre   73  ( -0.000882,  6.006937,  1.882632 )
  WF centre   74  (  0.015187,  6.120620,  1.915121 )
  WF centre   75  (  0.002635,  5.869407,  1.863532 )
  WF centre   76  (  1.721713,  2.997946,  1.707389 )
  WF centre   77  (  1.741722,  3.000748,  1.701623 )
  WF centre   78  (  1.740275,  3.007516,  1.700088 )
  WF centre   79  (  1.730145,  3.140126,  1.704030 )
  WF centre   80  (  1.767603,  2.881802,  1.703520 )
  WF centre   81  ( -1.721116,  2.997946,  1.705929 )
  WF centre   82  ( -1.739131,  3.001596,  1.702078 )
  WF centre   83  ( -1.738915,  3.005645,  1.701294 )
  WF centre   84  ( -1.729418,  3.139358,  1.706372 )
  WF centre   85  ( -1.755007,  2.881412,  1.703557 )
  WF centre   86  ( -3.460271,  5.937659,  1.672395 )
  WF centre   87  (  3.393622, -6.002560,  1.682154 )
  WF centre   88  (  3.399372, -5.993081,  1.688154 )
  WF centre   89  (  3.418174, -5.866437,  1.678995 )
  WF centre   90  (  3.363743, -6.109154,  1.673814 )
  WF centre   91  (  1.731980,  1.000368, -0.088149 )
  WF centre   92  (  1.726308,  0.987606,  0.063353 )
  WF centre   93  (  1.728091,  1.010278,  0.058147 )
  WF centre   94  (  1.723109,  0.996847,  3.479636 )
  WF centre   95  (  1.726363,  0.986081,  3.339999 )
  WF centre   96  (  1.726362,  1.006883,  3.338269 )
  WF centre   97  (  5.168453,  0.974875, -0.136244 )
  WF centre   98  (  5.157241,  0.964115,  0.002738 )
  WF centre   99  (  5.166186,  0.980022,  0.003161 )
  WF centre  100  (  5.165934,  1.061980,  3.460812 )
  WF centre  101  (  5.162347,  1.050283,  3.319016 )
  WF centre  102  (  5.164894,  1.055414,  3.321399 )
  WF centre  103  ( -5.167866,  0.977173, -0.144479 )
  WF centre  104  ( -5.155284,  0.966697,  0.001279 )
  WF centre  105  ( -5.165367,  0.976147,  0.001295 )
  WF centre  106  ( -5.159231,  1.055389,  3.463921 )
  WF centre  107  ( -5.157878,  1.048359,  3.319162 )
  WF centre  108  ( -5.161582,  1.047265,  3.324378 )
  WF centre  109  ( -1.731910,  1.001731, -0.084004 )
  WF centre  110  ( -1.727779,  0.987369,  0.061798 )
  WF centre  111  ( -1.727975,  1.005920,  0.057801 )
  WF centre  112  ( -1.731394,  0.985675,  3.480594 )
  WF centre  113  ( -1.728452,  0.980797,  3.339528 )
  WF centre  114  ( -1.729857,  0.995882,  3.344286 )
  WF centre  115  ( -3.426682,  3.986422, -0.141029 )
  WF centre  116  ( -3.421035,  3.977501,  0.004418 )
  WF centre  117  ( -3.423568,  3.992825, -0.000973 )
  WF centre  118  ( -3.500674,  3.943322,  3.465335 )
  WF centre  119  ( -3.487512,  3.932168,  3.317634 )
  WF centre  120  ( -3.500541,  3.961515,  3.325606 )
  WF centre  121  (  1.742423, -4.961550, -0.142492 )
  WF centre  122  (  1.738930, -4.965551, -0.003365 )
  WF centre  123  (  1.738315, -4.948100,  0.006892 )
  WF centre  124  (  1.654588, -5.007266,  3.468468 )
  WF centre  125  (  1.657927, -5.009945,  3.331396 )
  WF centre  126  (  1.660411, -4.985643,  3.313176 )
  WF centre  127  ( -0.007352, -2.003470, -0.082085 )
  WF centre  128  ( -0.002706, -2.009526,  0.057388 )
  WF centre  129  ( -0.003720, -1.984773,  0.066385 )
  WF centre  130  ( -0.013495, -1.999740,  3.488372 )
  WF centre  131  ( -0.011383, -2.006369,  3.348124 )
  WF centre  132  ( -0.005186, -1.985372,  3.346618 )
  WF centre  133  ( -3.497218, -2.013149, -0.020032 )
  WF centre  134  ( -3.494522, -2.031157,  0.116767 )
  WF centre  135  ( -3.492937, -2.002452,  0.119867 )
  WF centre  136  ( -3.405324, -2.277661,  3.646825 )
  WF centre  137  ( -3.337202, -1.949992,  3.443016 )
  WF centre  138  ( -3.423441, -1.805039,  3.585701 )
  WF centre  139  (  0.008195,  9.896899,  0.070693 )
  WF centre  140  (  0.007873,  9.892108,  0.182241 )
  WF centre  141  (  0.002833,  9.920161,  0.179085 )
  WF centre  142  (  0.003004, 10.280185,  3.645452 )
  WF centre  143  (  0.016965, 10.206592,  3.539315 )
  WF centre  144  (  0.007716, 10.137950,  3.524669 )
  WF centre  145  (  3.496993, -2.020654, -0.027154 )
  WF centre  146  (  3.495112, -2.026748,  0.113462 )
  WF centre  147  (  3.492920, -2.005117,  0.116649 )
  WF centre  148  (  3.398327, -1.965703,  3.551747 )
  WF centre  149  (  3.417808, -1.979397,  3.404347 )
  WF centre  150  (  3.397550, -1.952146,  3.403615 )
  WF centre  151  (  0.001436, -7.961281, -0.201307 )
  WF centre  152  ( -0.003307, -7.967916, -0.063099 )
  WF centre  153  (  0.001002, -7.948490, -0.066965 )
  WF centre  154  (  0.000394, -7.951959,  3.444239 )
  WF centre  155  ( -0.007731, -7.962143,  3.304084 )
  WF centre  156  ( -0.003944, -7.937966,  3.305719 )
  WF centre  157  ( -1.745318, -4.975386, -0.124910 )
  WF centre  158  ( -1.736869, -4.973434,  0.014995 )
  WF centre  159  ( -1.746867, -4.937958,  0.013401 )
  WF centre  160  ( -1.842428, -4.895930,  3.481919 )
  WF centre  161  ( -1.516999, -4.935983,  3.415688 )
  WF centre  162  ( -1.641509, -5.146222,  3.427250 )
  WF centre  163  (  1.681525,  6.978862,  0.061889 )
  WF centre  164  (  1.693884,  6.967579,  0.188648 )
  WF centre  165  (  1.690877,  7.001308,  0.179898 )
  WF centre  166  (  2.398407,  7.072284,  4.102776 )
  WF centre  167  (  0.186190,  7.835308,  5.064173 )
  WF centre  168  (  1.924330,  6.562611,  3.676658 )
  WF centre  169  (  3.429753,  4.002677, -0.126588 )
  WF centre  170  (  3.421140,  3.981068,  0.007002 )
  WF centre  171  (  3.423129,  4.006481,  0.020372 )
  WF centre  172  (  3.508615,  3.946821,  3.463250 )
  WF centre  173  (  3.483971,  3.936761,  3.320042 )
  WF centre  174  (  3.500000,  3.981732,  3.331782 )
  WF centre  175  ( -0.001867,  4.036433, -0.025999 )
  WF centre  176  (  0.002483,  4.022553,  0.119216 )
  WF centre  177  ( -0.000702,  4.052925,  0.115261 )
  WF centre  178  ( -0.000242,  3.927799,  3.551098 )
  WF centre  179  (  0.007465,  3.914738,  3.402591 )
  WF centre  180  (  0.004546,  3.976816,  3.407228 )
  WF centre  181  ( -1.684643,  6.982360,  0.058976 )
  WF centre  182  ( -1.690446,  6.973540,  0.175268 )
  WF centre  183  ( -1.687771,  6.994619,  0.173170 )
  WF centre  184  ( -2.011620,  6.818469,  3.634157 )
  WF centre  185  ( -1.911669,  6.865187,  3.515639 )
  WF centre  186  ( -1.930268,  6.798112,  3.548589 )
 ------------------------------------------------------------------------------
 

 Wannier centres written to file 2cr.up_centres.xyz
  
  Omega Invariant:   1-s^2 =   307.605823075 (Ang^2)
                   -2log s =   346.601011514 (Ang^2)
                    acos^2 =   332.131241241 (Ang^2)
 Time for wannierise           36.027 (sec)

 Writing checkpoint file 2cr.up.chk... done

 *---------------------------------------------------------------------------*
 |                               PLOTTING                                    |
 *---------------------------------------------------------------------------*
 
    1 lattice points in Wigner-Seitz supercell:

      vector   0   0   0   degeneracy:  1
  tot =        1.000
  mp_grid product =            1
 
 Calculating interpolated band-structure
 
 Time to calculate interpolated band structure       5.526 (sec)
 
 Time for plotting              5.730 (sec)
 Total Execution Time         166.424 (sec)

 *===========================================================================*
 |                             TIMING INFORMATION                            |
 *===========================================================================*
 |    Tag                                                Ncalls      Time (s)|
 |---------------------------------------------------------------------------|
 |kmesh: get                                        :         1         0.023|
 |overlap: allocate                                 :         1         0.001|
 |overlap: read                                     :         1         4.133|
 |dis: main                                         :         1       120.469|
 |wann: main                                        :         1        36.027|
 |plot: main                                        :         1         5.730|
 *---------------------------------------------------------------------------*
 
 All done: wannier90 exiting
