 
             +---------------------------------------------------+
             |                                                   |
             |                   WANNIER90                       |
             |                                                   |
             +---------------------------------------------------+
             |                                                   |
             |        Welcome to the Maximally-Localized         |
             |        Generalized Wannier Functions code         |
             |            http://www.wannier.org                 |
             |                                                   |
             |                                                   |
             |  Wannier90 Developer Group:                       |
             |    Giovanni Pizzi    (EPFL)                       |
             |    Valerio Vitale    (Cambridge)                  |
             |    David Vanderbilt  (Rutgers University)         |
             |    Nicola Marzari    (EPFL)                       |
             |    Ivo Souza         (Universidad del Pais Vasco) |
             |    Arash A. Mostofi  (Imperial College London)    |
             |    Jonathan R. Yates (University of Oxford)       |
             |                                                   |
             |  For the full list of Wannier90 3.x authors,      |
             |  please check the code documentation and the      |
             |  README on the GitHub page of the code            |
             |                                                   |
             |                                                   |
             |  Please cite                                      |
             |                                                   |
             |  [ref] "Wannier90 as a community code:            |
             |        new features and applications",            |
             |        G. Pizzi et al., J. Phys. Cond. Matt. 32,  |
             |        165902 (2020).                             |
             |        http://doi.org/10.1088/1361-648X/ab51ff    |
             |                                                   |
             |  in any publications arising from the use of      |
             |  this code. For the method please cite            |
             |                                                   |
             |  [ref] "Maximally Localized Generalised Wannier   |
             |         Functions for Composite Energy Bands"     |
             |         N. Marzari and D. Vanderbilt              |
             |         Phys. Rev. B 56 12847 (1997)              |
             |                                                   |
             |  [ref] "Maximally Localized Wannier Functions     |
             |         for Entangled Energy Bands"               |
             |         I. Souza, N. Marzari and D. Vanderbilt    |
             |         Phys. Rev. B 65 035109 (2001)             |
             |                                                   |
             |                                                   |
             | Copyright (c) 1996-2020                           |
             |        The Wannier90 Developer Group and          |
             |        individual contributors                    |
             |                                                   |
             |      Release: 3.1.0        5th March    2020      |
             |                                                   |
             | This program is free software; you can            |
             | redistribute it and/or modify it under the terms  |
             | of the GNU General Public License as published by |
             | the Free Software Foundation; either version 2 of |
             | the License, or (at your option) any later version|
             |                                                   |
             | This program is distributed in the hope that it   |
             | will be useful, but WITHOUT ANY WARRANTY; without |
             | even the implied warranty of MERCHANTABILITY or   |
             | FITNESS FOR A PARTICULAR PURPOSE. See the GNU     |
             | General Public License for more details.          |
             |                                                   |
             | You should have received a copy of the GNU General|
             | Public License along with this program; if not,   |
             | write to the Free Software Foundation, Inc.,      |
             | 675 Mass Ave, Cambridge, MA 02139, USA.           |
             |                                                   |
             +---------------------------------------------------+
             |    Execution started on 24Jul2023 at 10:59:00     |
             +---------------------------------------------------+
 
 ******************************************************************************
 * -> Using CODATA 2006 constant values                                       *
 *    (http://physics.nist.gov/cuu/Constants/index.html)                      *
 * -> Using Bohr value from CODATA                                            *
 ******************************************************************************
 

 Running in parallel on  80 CPUs

 
                                    ------
                                    SYSTEM
                                    ------
 
                              Lattice Vectors (Ang)
                    a_1    13.784171   0.000000   0.000000
                    a_2    -6.892085  11.937442   0.000000
                    a_3     0.000000   0.000000  23.631430
 
                   Unit Cell Volume:    3888.49848  (Ang^3)
 
                        Reciprocal-Space Vectors (Ang^-1)
                    b_1     0.455826   0.263171   0.000000
                    b_2     0.000000   0.526343   0.000000
                    b_3     0.000000   0.000000   0.265883
  
 *----------------------------------------------------------------------------*
 |   Site       Fractional Coordinate          Cartesian Coordinate (Ang)     |
 +----------------------------------------------------------------------------+
 | Cr   1   0.33333   0.66667   0.16685   |   -0.00000   7.95829   3.94299    |
 | Cr   2   0.58000   0.66667   0.16685   |    3.40010   7.95829   3.94299    |
 | Nb   1   0.00000   0.00000   0.07170   |    0.00000   0.00000   1.69430    |
 | Nb   2   0.25189   0.00024   0.07201   |    3.47040   0.00287   1.70173    |
 | Nb   3   0.50228   0.00457   0.07084   |    6.89209   0.05454   1.67414    |
 | Nb   4   0.74835   0.00024   0.07201   |   10.31377   0.00287   1.70173    |
 | Nb   5   0.74850   0.25150   0.06828   |    8.58404   3.00230   1.61367    |
 | Nb   6   0.74850   0.49699   0.06828   |    6.89209   5.93284   1.61367    |
 | Nb   7   0.74835   0.74811   0.07201   |    5.15937   8.93055   1.70173    |
 | Nb   8   0.50032   0.75016   0.07859   |    1.72635   8.95500   1.85709    |
 | Nb   9   0.24984   0.75016   0.07859   |   -1.72635   8.95500   1.85709    |
 | Nb  10  -0.00024   0.74811   0.07201   |   -5.15937   8.93055   1.70173    |
 | Nb  11   0.50301   0.25150   0.06828   |    5.20014   3.00230   1.61367    |
 | Nb  12   0.50228   0.49772   0.07084   |    3.49327   5.94145   1.67414    |
 | Nb  13   0.24984   0.49968   0.07859   |   -0.00000   5.96488   1.85709    |
 | Nb  14   0.25189   0.25165   0.07201   |    1.73769   3.00402   1.70173    |
 | Nb  15  -0.00024   0.25165   0.07201   |   -1.73769   3.00402   1.70173    |
 | Nb  16  -0.00457   0.49772   0.07084   |   -3.49327   5.94145   1.67414    |
 | Se   1   0.16721   0.08361   0.00063   |    1.72866   0.99804   0.01486    |
 | Se   2   0.16690   0.08345   0.14290   |    1.72538   0.99615   3.37693    |
 | Se   3   0.41544   0.08143  -0.00156   |    5.16530   0.97207  -0.03681    |
 | Se   4   0.41911   0.08928   0.14188   |    5.16174   1.06572   3.35289    |
 | Se   5   0.66599   0.08143  -0.00156   |    8.61887   0.97207  -0.03681    |
 | Se   6   0.67017   0.08928   0.14188   |    8.62243   1.06572   3.35289    |
 | Se   7   0.91639   0.08361   0.00063   |   12.05551   0.99804   0.01486    |
 | Se   8   0.91655   0.08345   0.14290   |   12.05879   0.99615   3.37693    |
 | Se   9   0.91857   0.33401  -0.00156   |   10.35968   3.98724  -0.03681    |
 | Se  10   0.91072   0.32983   0.14188   |   10.28036   3.93734   3.35289    |
 | Se  11   0.91857   0.58456  -0.00156   |    8.63289   6.97813  -0.03681    |
 | Se  12   0.91072   0.58089   0.14188   |    8.55002   6.93438   3.35289    |
 | Se  13   0.91639   0.83279   0.00063   |    6.89209   9.94136   0.01486    |
 | Se  14   0.91655   0.83310   0.14290   |    6.89209   9.94514   3.37693    |
 | Se  15   0.66220   0.83110   0.00298   |    3.39989   9.92122   0.07043    |
 | Se  16   0.67172   0.83586   0.14547   |    3.49824   9.97800   3.43758    |
 | Se  17   0.41489   0.82979   0.00560   |    0.00000   9.90552   0.13226    |
 | Se  18   0.42825   0.85651   0.14992   |    0.00000  10.22450   3.54287    |
 | Se  19   0.16890   0.83110   0.00298   |   -3.39989   9.92122   0.07043    |
 | Se  20   0.16414   0.83586   0.14547   |   -3.49824   9.97800   3.43758    |
 | Se  21   0.66667   0.33333  -0.00432   |    6.89209   3.97915  -0.10210    |
 | Se  22   0.66667   0.33333   0.14105   |    6.89209   3.97915   3.33317    |
 | Se  23   0.66599   0.58456  -0.00156   |    5.15128   6.97813  -0.03681    |
 | Se  24   0.67017   0.58089   0.14188   |    5.23415   6.93438   3.35289    |
 | Se  25   0.41489   0.58511   0.00560   |    1.68635   6.98468   0.13226    |
 | Se  26   0.42825   0.57175   0.14992   |    1.96259   6.82519   3.54287    |
 | Se  27   0.41544   0.33401  -0.00156   |    3.42449   3.98724  -0.03681    |
 | Se  28   0.41911   0.32983   0.14188   |    3.50381   3.93734   3.35289    |
 | Se  29   0.16890   0.33780   0.00298   |    0.00000   4.03244   0.07043    |
 | Se  30   0.16414   0.32828   0.14547   |    0.00000   3.91888   3.43758    |
 | Se  31   0.17021   0.58511   0.00560   |   -1.68635   6.98468   0.13226    |
 | Se  32   0.14349   0.57175   0.14992   |   -1.96259   6.82519   3.54287    |
 *----------------------------------------------------------------------------*
                                -----------
                                PROJECTIONS
                                -----------
  
 +----------------------------------------------------------------------------+
 |     Frac. Coord.   l mr  r        z-axis               x-axis          Z/a |
 +----------------------------------------------------------------------------+
 |  0.33  0.67  0.17  2  1  1  0.000  0.000  1.000  1.000  0.000  0.000   1.0 |
 |  0.33  0.67  0.17  2  2  1  0.000  0.000  1.000  1.000  0.000  0.000   1.0 |
 |  0.33  0.67  0.17  2  3  1  0.000  0.000  1.000  1.000  0.000  0.000   1.0 |
 |  0.33  0.67  0.17  2  4  1  0.000  0.000  1.000  1.000  0.000  0.000   1.0 |
 |  0.33  0.67  0.17  2  5  1  0.000  0.000  1.000  1.000  0.000  0.000   1.0 |
 |  0.58  0.67  0.17  2  1  1  0.000  0.000  1.000  1.000  0.000  0.000   1.0 |
 |  0.58  0.67  0.17  2  2  1  0.000  0.000  1.000  1.000  0.000  0.000   1.0 |
 |  0.58  0.67  0.17  2  3  1  0.000  0.000  1.000  1.000  0.000  0.000   1.0 |
 |  0.58  0.67  0.17  2  4  1  0.000  0.000  1.000  1.000  0.000  0.000   1.0 |
 |  0.58  0.67  0.17  2  5  1  0.000  0.000  1.000  1.000  0.000  0.000   1.0 |
 |  0.00  0.00  0.07  2  1  1  0.000  0.000  1.000  1.000  0.000  0.000   1.0 |
 |  0.00  0.00  0.07  2  2  1  0.000  0.000  1.000  1.000  0.000  0.000   1.0 |
 |  0.00  0.00  0.07  2  3  1  0.000  0.000  1.000  1.000  0.000  0.000   1.0 |
 |  0.00  0.00  0.07  2  4  1  0.000  0.000  1.000  1.000  0.000  0.000   1.0 |
 |  0.00  0.00  0.07  2  5  1  0.000  0.000  1.000  1.000  0.000  0.000   1.0 |
 |  0.25  0.00  0.07  2  1  1  0.000  0.000  1.000  1.000  0.000  0.000   1.0 |
 |  0.25  0.00  0.07  2  2  1  0.000  0.000  1.000  1.000  0.000  0.000   1.0 |
 |  0.25  0.00  0.07  2  3  1  0.000  0.000  1.000  1.000  0.000  0.000   1.0 |
 |  0.25  0.00  0.07  2  4  1  0.000  0.000  1.000  1.000  0.000  0.000   1.0 |
 |  0.25  0.00  0.07  2  5  1  0.000  0.000  1.000  1.000  0.000  0.000   1.0 |
 |  0.50  0.00  0.07  2  1  1  0.000  0.000  1.000  1.000  0.000  0.000   1.0 |
 |  0.50  0.00  0.07  2  2  1  0.000  0.000  1.000  1.000  0.000  0.000   1.0 |
 |  0.50  0.00  0.07  2  3  1  0.000  0.000  1.000  1.000  0.000  0.000   1.0 |
 |  0.50  0.00  0.07  2  4  1  0.000  0.000  1.000  1.000  0.000  0.000   1.0 |
 |  0.50  0.00  0.07  2  5  1  0.000  0.000  1.000  1.000  0.000  0.000   1.0 |
 |  0.75  0.00  0.07  2  1  1  0.000  0.000  1.000  1.000  0.000  0.000   1.0 |
 |  0.75  0.00  0.07  2  2  1  0.000  0.000  1.000  1.000  0.000  0.000   1.0 |
 |  0.75  0.00  0.07  2  3  1  0.000  0.000  1.000  1.000  0.000  0.000   1.0 |
 |  0.75  0.00  0.07  2  4  1  0.000  0.000  1.000  1.000  0.000  0.000   1.0 |
 |  0.75  0.00  0.07  2  5  1  0.000  0.000  1.000  1.000  0.000  0.000   1.0 |
 |  0.75  0.25  0.07  2  1  1  0.000  0.000  1.000  1.000  0.000  0.000   1.0 |
 |  0.75  0.25  0.07  2  2  1  0.000  0.000  1.000  1.000  0.000  0.000   1.0 |
 |  0.75  0.25  0.07  2  3  1  0.000  0.000  1.000  1.000  0.000  0.000   1.0 |
 |  0.75  0.25  0.07  2  4  1  0.000  0.000  1.000  1.000  0.000  0.000   1.0 |
 |  0.75  0.25  0.07  2  5  1  0.000  0.000  1.000  1.000  0.000  0.000   1.0 |
 |  0.75  0.50  0.07  2  1  1  0.000  0.000  1.000  1.000  0.000  0.000   1.0 |
 |  0.75  0.50  0.07  2  2  1  0.000  0.000  1.000  1.000  0.000  0.000   1.0 |
 |  0.75  0.50  0.07  2  3  1  0.000  0.000  1.000  1.000  0.000  0.000   1.0 |
 |  0.75  0.50  0.07  2  4  1  0.000  0.000  1.000  1.000  0.000  0.000   1.0 |
 |  0.75  0.50  0.07  2  5  1  0.000  0.000  1.000  1.000  0.000  0.000   1.0 |
 |  0.75  0.75  0.07  2  1  1  0.000  0.000  1.000  1.000  0.000  0.000   1.0 |
 |  0.75  0.75  0.07  2  2  1  0.000  0.000  1.000  1.000  0.000  0.000   1.0 |
 |  0.75  0.75  0.07  2  3  1  0.000  0.000  1.000  1.000  0.000  0.000   1.0 |
 |  0.75  0.75  0.07  2  4  1  0.000  0.000  1.000  1.000  0.000  0.000   1.0 |
 |  0.75  0.75  0.07  2  5  1  0.000  0.000  1.000  1.000  0.000  0.000   1.0 |
 |  0.50  0.75  0.08  2  1  1  0.000  0.000  1.000  1.000  0.000  0.000   1.0 |
 |  0.50  0.75  0.08  2  2  1  0.000  0.000  1.000  1.000  0.000  0.000   1.0 |
 |  0.50  0.75  0.08  2  3  1  0.000  0.000  1.000  1.000  0.000  0.000   1.0 |
 |  0.50  0.75  0.08  2  4  1  0.000  0.000  1.000  1.000  0.000  0.000   1.0 |
 |  0.50  0.75  0.08  2  5  1  0.000  0.000  1.000  1.000  0.000  0.000   1.0 |
 |  0.25  0.75  0.08  2  1  1  0.000  0.000  1.000  1.000  0.000  0.000   1.0 |
 |  0.25  0.75  0.08  2  2  1  0.000  0.000  1.000  1.000  0.000  0.000   1.0 |
 |  0.25  0.75  0.08  2  3  1  0.000  0.000  1.000  1.000  0.000  0.000   1.0 |
 |  0.25  0.75  0.08  2  4  1  0.000  0.000  1.000  1.000  0.000  0.000   1.0 |
 |  0.25  0.75  0.08  2  5  1  0.000  0.000  1.000  1.000  0.000  0.000   1.0 |
 | -0.00  0.75  0.07  2  1  1  0.000  0.000  1.000  1.000  0.000  0.000   1.0 |
 | -0.00  0.75  0.07  2  2  1  0.000  0.000  1.000  1.000  0.000  0.000   1.0 |
 | -0.00  0.75  0.07  2  3  1  0.000  0.000  1.000  1.000  0.000  0.000   1.0 |
 | -0.00  0.75  0.07  2  4  1  0.000  0.000  1.000  1.000  0.000  0.000   1.0 |
 | -0.00  0.75  0.07  2  5  1  0.000  0.000  1.000  1.000  0.000  0.000   1.0 |
 |  0.50  0.25  0.07  2  1  1  0.000  0.000  1.000  1.000  0.000  0.000   1.0 |
 |  0.50  0.25  0.07  2  2  1  0.000  0.000  1.000  1.000  0.000  0.000   1.0 |
 |  0.50  0.25  0.07  2  3  1  0.000  0.000  1.000  1.000  0.000  0.000   1.0 |
 |  0.50  0.25  0.07  2  4  1  0.000  0.000  1.000  1.000  0.000  0.000   1.0 |
 |  0.50  0.25  0.07  2  5  1  0.000  0.000  1.000  1.000  0.000  0.000   1.0 |
 |  0.50  0.50  0.07  2  1  1  0.000  0.000  1.000  1.000  0.000  0.000   1.0 |
 |  0.50  0.50  0.07  2  2  1  0.000  0.000  1.000  1.000  0.000  0.000   1.0 |
 |  0.50  0.50  0.07  2  3  1  0.000  0.000  1.000  1.000  0.000  0.000   1.0 |
 |  0.50  0.50  0.07  2  4  1  0.000  0.000  1.000  1.000  0.000  0.000   1.0 |
 |  0.50  0.50  0.07  2  5  1  0.000  0.000  1.000  1.000  0.000  0.000   1.0 |
 |  0.25  0.50  0.08  2  1  1  0.000  0.000  1.000  1.000  0.000  0.000   1.0 |
 |  0.25  0.50  0.08  2  2  1  0.000  0.000  1.000  1.000  0.000  0.000   1.0 |
 |  0.25  0.50  0.08  2  3  1  0.000  0.000  1.000  1.000  0.000  0.000   1.0 |
 |  0.25  0.50  0.08  2  4  1  0.000  0.000  1.000  1.000  0.000  0.000   1.0 |
 |  0.25  0.50  0.08  2  5  1  0.000  0.000  1.000  1.000  0.000  0.000   1.0 |
 |  0.25  0.25  0.07  2  1  1  0.000  0.000  1.000  1.000  0.000  0.000   1.0 |
 |  0.25  0.25  0.07  2  2  1  0.000  0.000  1.000  1.000  0.000  0.000   1.0 |
 |  0.25  0.25  0.07  2  3  1  0.000  0.000  1.000  1.000  0.000  0.000   1.0 |
 |  0.25  0.25  0.07  2  4  1  0.000  0.000  1.000  1.000  0.000  0.000   1.0 |
 |  0.25  0.25  0.07  2  5  1  0.000  0.000  1.000  1.000  0.000  0.000   1.0 |
 | -0.00  0.25  0.07  2  1  1  0.000  0.000  1.000  1.000  0.000  0.000   1.0 |
 | -0.00  0.25  0.07  2  2  1  0.000  0.000  1.000  1.000  0.000  0.000   1.0 |
 | -0.00  0.25  0.07  2  3  1  0.000  0.000  1.000  1.000  0.000  0.000   1.0 |
 | -0.00  0.25  0.07  2  4  1  0.000  0.000  1.000  1.000  0.000  0.000   1.0 |
 | -0.00  0.25  0.07  2  5  1  0.000  0.000  1.000  1.000  0.000  0.000   1.0 |
 | -0.00  0.50  0.07  2  1  1  0.000  0.000  1.000  1.000  0.000  0.000   1.0 |
 | -0.00  0.50  0.07  2  2  1  0.000  0.000  1.000  1.000  0.000  0.000   1.0 |
 | -0.00  0.50  0.07  2  3  1  0.000  0.000  1.000  1.000  0.000  0.000   1.0 |
 | -0.00  0.50  0.07  2  4  1  0.000  0.000  1.000  1.000  0.000  0.000   1.0 |
 | -0.00  0.50  0.07  2  5  1  0.000  0.000  1.000  1.000  0.000  0.000   1.0 |
 |  0.17  0.08  0.00  1  1  1  0.000  0.000  1.000  1.000  0.000  0.000   1.0 |
 |  0.17  0.08  0.00  1  2  1  0.000  0.000  1.000  1.000  0.000  0.000   1.0 |
 |  0.17  0.08  0.00  1  3  1  0.000  0.000  1.000  1.000  0.000  0.000   1.0 |
 |  0.17  0.08  0.14  1  1  1  0.000  0.000  1.000  1.000  0.000  0.000   1.0 |
 |  0.17  0.08  0.14  1  2  1  0.000  0.000  1.000  1.000  0.000  0.000   1.0 |
 |  0.17  0.08  0.14  1  3  1  0.000  0.000  1.000  1.000  0.000  0.000   1.0 |
 |  0.42  0.08 -0.00  1  1  1  0.000  0.000  1.000  1.000  0.000  0.000   1.0 |
 |  0.42  0.08 -0.00  1  2  1  0.000  0.000  1.000  1.000  0.000  0.000   1.0 |
 |  0.42  0.08 -0.00  1  3  1  0.000  0.000  1.000  1.000  0.000  0.000   1.0 |
 |  0.42  0.09  0.14  1  1  1  0.000  0.000  1.000  1.000  0.000  0.000   1.0 |
 |  0.42  0.09  0.14  1  2  1  0.000  0.000  1.000  1.000  0.000  0.000   1.0 |
 |  0.42  0.09  0.14  1  3  1  0.000  0.000  1.000  1.000  0.000  0.000   1.0 |
 |  0.67  0.08 -0.00  1  1  1  0.000  0.000  1.000  1.000  0.000  0.000   1.0 |
 |  0.67  0.08 -0.00  1  2  1  0.000  0.000  1.000  1.000  0.000  0.000   1.0 |
 |  0.67  0.08 -0.00  1  3  1  0.000  0.000  1.000  1.000  0.000  0.000   1.0 |
 |  0.67  0.09  0.14  1  1  1  0.000  0.000  1.000  1.000  0.000  0.000   1.0 |
 |  0.67  0.09  0.14  1  2  1  0.000  0.000  1.000  1.000  0.000  0.000   1.0 |
 |  0.67  0.09  0.14  1  3  1  0.000  0.000  1.000  1.000  0.000  0.000   1.0 |
 |  0.92  0.08  0.00  1  1  1  0.000  0.000  1.000  1.000  0.000  0.000   1.0 |
 |  0.92  0.08  0.00  1  2  1  0.000  0.000  1.000  1.000  0.000  0.000   1.0 |
 |  0.92  0.08  0.00  1  3  1  0.000  0.000  1.000  1.000  0.000  0.000   1.0 |
 |  0.92  0.08  0.14  1  1  1  0.000  0.000  1.000  1.000  0.000  0.000   1.0 |
 |  0.92  0.08  0.14  1  2  1  0.000  0.000  1.000  1.000  0.000  0.000   1.0 |
 |  0.92  0.08  0.14  1  3  1  0.000  0.000  1.000  1.000  0.000  0.000   1.0 |
 |  0.92  0.33 -0.00  1  1  1  0.000  0.000  1.000  1.000  0.000  0.000   1.0 |
 |  0.92  0.33 -0.00  1  2  1  0.000  0.000  1.000  1.000  0.000  0.000   1.0 |
 |  0.92  0.33 -0.00  1  3  1  0.000  0.000  1.000  1.000  0.000  0.000   1.0 |
 |  0.91  0.33  0.14  1  1  1  0.000  0.000  1.000  1.000  0.000  0.000   1.0 |
 |  0.91  0.33  0.14  1  2  1  0.000  0.000  1.000  1.000  0.000  0.000   1.0 |
 |  0.91  0.33  0.14  1  3  1  0.000  0.000  1.000  1.000  0.000  0.000   1.0 |
 |  0.92  0.58 -0.00  1  1  1  0.000  0.000  1.000  1.000  0.000  0.000   1.0 |
 |  0.92  0.58 -0.00  1  2  1  0.000  0.000  1.000  1.000  0.000  0.000   1.0 |
 |  0.92  0.58 -0.00  1  3  1  0.000  0.000  1.000  1.000  0.000  0.000   1.0 |
 |  0.91  0.58  0.14  1  1  1  0.000  0.000  1.000  1.000  0.000  0.000   1.0 |
 |  0.91  0.58  0.14  1  2  1  0.000  0.000  1.000  1.000  0.000  0.000   1.0 |
 |  0.91  0.58  0.14  1  3  1  0.000  0.000  1.000  1.000  0.000  0.000   1.0 |
 |  0.92  0.83  0.00  1  1  1  0.000  0.000  1.000  1.000  0.000  0.000   1.0 |
 |  0.92  0.83  0.00  1  2  1  0.000  0.000  1.000  1.000  0.000  0.000   1.0 |
 |  0.92  0.83  0.00  1  3  1  0.000  0.000  1.000  1.000  0.000  0.000   1.0 |
 |  0.92  0.83  0.14  1  1  1  0.000  0.000  1.000  1.000  0.000  0.000   1.0 |
 |  0.92  0.83  0.14  1  2  1  0.000  0.000  1.000  1.000  0.000  0.000   1.0 |
 |  0.92  0.83  0.14  1  3  1  0.000  0.000  1.000  1.000  0.000  0.000   1.0 |
 |  0.66  0.83  0.00  1  1  1  0.000  0.000  1.000  1.000  0.000  0.000   1.0 |
 |  0.66  0.83  0.00  1  2  1  0.000  0.000  1.000  1.000  0.000  0.000   1.0 |
 |  0.66  0.83  0.00  1  3  1  0.000  0.000  1.000  1.000  0.000  0.000   1.0 |
 |  0.67  0.84  0.15  1  1  1  0.000  0.000  1.000  1.000  0.000  0.000   1.0 |
 |  0.67  0.84  0.15  1  2  1  0.000  0.000  1.000  1.000  0.000  0.000   1.0 |
 |  0.67  0.84  0.15  1  3  1  0.000  0.000  1.000  1.000  0.000  0.000   1.0 |
 |  0.41  0.83  0.01  1  1  1  0.000  0.000  1.000  1.000  0.000  0.000   1.0 |
 |  0.41  0.83  0.01  1  2  1  0.000  0.000  1.000  1.000  0.000  0.000   1.0 |
 |  0.41  0.83  0.01  1  3  1  0.000  0.000  1.000  1.000  0.000  0.000   1.0 |
 |  0.43  0.86  0.15  1  1  1  0.000  0.000  1.000  1.000  0.000  0.000   1.0 |
 |  0.43  0.86  0.15  1  2  1  0.000  0.000  1.000  1.000  0.000  0.000   1.0 |
 |  0.43  0.86  0.15  1  3  1  0.000  0.000  1.000  1.000  0.000  0.000   1.0 |
 |  0.17  0.83  0.00  1  1  1  0.000  0.000  1.000  1.000  0.000  0.000   1.0 |
 |  0.17  0.83  0.00  1  2  1  0.000  0.000  1.000  1.000  0.000  0.000   1.0 |
 |  0.17  0.83  0.00  1  3  1  0.000  0.000  1.000  1.000  0.000  0.000   1.0 |
 |  0.16  0.84  0.15  1  1  1  0.000  0.000  1.000  1.000  0.000  0.000   1.0 |
 |  0.16  0.84  0.15  1  2  1  0.000  0.000  1.000  1.000  0.000  0.000   1.0 |
 |  0.16  0.84  0.15  1  3  1  0.000  0.000  1.000  1.000  0.000  0.000   1.0 |
 |  0.67  0.33 -0.00  1  1  1  0.000  0.000  1.000  1.000  0.000  0.000   1.0 |
 |  0.67  0.33 -0.00  1  2  1  0.000  0.000  1.000  1.000  0.000  0.000   1.0 |
 |  0.67  0.33 -0.00  1  3  1  0.000  0.000  1.000  1.000  0.000  0.000   1.0 |
 |  0.67  0.33  0.14  1  1  1  0.000  0.000  1.000  1.000  0.000  0.000   1.0 |
 |  0.67  0.33  0.14  1  2  1  0.000  0.000  1.000  1.000  0.000  0.000   1.0 |
 |  0.67  0.33  0.14  1  3  1  0.000  0.000  1.000  1.000  0.000  0.000   1.0 |
 |  0.67  0.58 -0.00  1  1  1  0.000  0.000  1.000  1.000  0.000  0.000   1.0 |
 |  0.67  0.58 -0.00  1  2  1  0.000  0.000  1.000  1.000  0.000  0.000   1.0 |
 |  0.67  0.58 -0.00  1  3  1  0.000  0.000  1.000  1.000  0.000  0.000   1.0 |
 |  0.67  0.58  0.14  1  1  1  0.000  0.000  1.000  1.000  0.000  0.000   1.0 |
 |  0.67  0.58  0.14  1  2  1  0.000  0.000  1.000  1.000  0.000  0.000   1.0 |
 |  0.67  0.58  0.14  1  3  1  0.000  0.000  1.000  1.000  0.000  0.000   1.0 |
 |  0.41  0.59  0.01  1  1  1  0.000  0.000  1.000  1.000  0.000  0.000   1.0 |
 |  0.41  0.59  0.01  1  2  1  0.000  0.000  1.000  1.000  0.000  0.000   1.0 |
 |  0.41  0.59  0.01  1  3  1  0.000  0.000  1.000  1.000  0.000  0.000   1.0 |
 |  0.43  0.57  0.15  1  1  1  0.000  0.000  1.000  1.000  0.000  0.000   1.0 |
 |  0.43  0.57  0.15  1  2  1  0.000  0.000  1.000  1.000  0.000  0.000   1.0 |
 |  0.43  0.57  0.15  1  3  1  0.000  0.000  1.000  1.000  0.000  0.000   1.0 |
 |  0.42  0.33 -0.00  1  1  1  0.000  0.000  1.000  1.000  0.000  0.000   1.0 |
 |  0.42  0.33 -0.00  1  2  1  0.000  0.000  1.000  1.000  0.000  0.000   1.0 |
 |  0.42  0.33 -0.00  1  3  1  0.000  0.000  1.000  1.000  0.000  0.000   1.0 |
 |  0.42  0.33  0.14  1  1  1  0.000  0.000  1.000  1.000  0.000  0.000   1.0 |
 |  0.42  0.33  0.14  1  2  1  0.000  0.000  1.000  1.000  0.000  0.000   1.0 |
 |  0.42  0.33  0.14  1  3  1  0.000  0.000  1.000  1.000  0.000  0.000   1.0 |
 |  0.17  0.34  0.00  1  1  1  0.000  0.000  1.000  1.000  0.000  0.000   1.0 |
 |  0.17  0.34  0.00  1  2  1  0.000  0.000  1.000  1.000  0.000  0.000   1.0 |
 |  0.17  0.34  0.00  1  3  1  0.000  0.000  1.000  1.000  0.000  0.000   1.0 |
 |  0.16  0.33  0.15  1  1  1  0.000  0.000  1.000  1.000  0.000  0.000   1.0 |
 |  0.16  0.33  0.15  1  2  1  0.000  0.000  1.000  1.000  0.000  0.000   1.0 |
 |  0.16  0.33  0.15  1  3  1  0.000  0.000  1.000  1.000  0.000  0.000   1.0 |
 |  0.17  0.59  0.01  1  1  1  0.000  0.000  1.000  1.000  0.000  0.000   1.0 |
 |  0.17  0.59  0.01  1  2  1  0.000  0.000  1.000  1.000  0.000  0.000   1.0 |
 |  0.17  0.59  0.01  1  3  1  0.000  0.000  1.000  1.000  0.000  0.000   1.0 |
 |  0.14  0.57  0.15  1  1  1  0.000  0.000  1.000  1.000  0.000  0.000   1.0 |
 |  0.14  0.57  0.15  1  2  1  0.000  0.000  1.000  1.000  0.000  0.000   1.0 |
 |  0.14  0.57  0.15  1  3  1  0.000  0.000  1.000  1.000  0.000  0.000   1.0 |
 +----------------------------------------------------------------------------+
  
                                ------------
                                K-POINT GRID
                                ------------
  
             Grid size =  1 x  1 x  1      Total points =    1
  
 *----------------------------------------------------------------------------*
 | k-point      Fractional Coordinate        Cartesian Coordinate (Ang^-1)    |
 +----------------------------------------------------------------------------+
 |     1    0.00000   0.00000   0.00000   |    0.00000   0.00000   0.00000    |
 *----------------------------------------------------------------------------*
  
  
 *---------------------------------- MAIN ------------------------------------*
 |  Number of Wannier Functions               :               186             |
 |  Number of Objective Wannier Functions     :               186             |
 |  Number of input Bloch states              :               450             |
 |  Output verbosity (1=low, 5=high)          :                 3             |
 |  Timing Level (1=low, 5=high)              :                 1             |
 |  Optimisation (0=memory, 3=speed)          :                 3             |
 |  Length Unit                               :               Ang             |
 |  Post-processing setup (write *.nnkp)      :                 F             |
 |  Using Gamma-only branch of algorithms     :                 F             |
 |  CP code post-processing                   :                 F             |
 |  Wavefunction (UNK) file-type              :       unformatted             |
 |  Wavefunction spin channel                 :                up             |
 *----------------------------------------------------------------------------*
 *------------------------------- WANNIERISE ---------------------------------*
 |  Total number of iterations                :               500             |
 |  Number of CG steps before reset           :                 5             |
 |  Trial step length for line search         :             2.000             |
 |  Convergence tolerence                     :         0.100E-09             |
 |  Convergence window                        :                -1             |
 |  Iterations between writing output         :                50             |
 |  Iterations between backing up to disk     :               100             |
 |  Write r^2_nm to file                      :                 F             |
 |  Write xyz WF centres to file              :                 T             |
 |  Write on-site energies <0n|H|0n> to file  :                 F             |
 |  Use guiding centre to control phases      :                 T             |
 |  Use phases for initial projections        :                 F             |
 |  Iterations before starting guiding centres:                 0             |
 |  Iterations between using guiding centres  :                 1             |
 |  Perform selective localization            :                 F             |
 |  Use constrains in selective localization  :                 F             |
 |  Value of the Lagrange multiplier          :         0.100E+01             |
 *----------------------------------------------------------------------------*
 *------------------------------- DISENTANGLE --------------------------------*
 |  Using band disentanglement                :                 T             |
 |  Total number of iterations                :              4000             |
 |  Mixing ratio                              :             0.500             |
 |  Convergence tolerence                     :         1.000E-10             |
 |  Convergence window                        :                 3             |
 *----------------------------------------------------------------------------*
 *-------------------------------- PLOTTING ----------------------------------*
 |  Plotting Wannier functions                :                 F             |
 |   Size of supercell for plotting           :     2x    2x    2             |
 |   Plotting mode (molecule or crystal)      :           crystal             |
 |   Plotting format                          :          xcrysden             |
 |   Plot radius                              :             3.500             |
 |   Plot scale                               :             1.000             |
 *----------------------------------------------------------------------------*
 |  Plotting Fermi surface                    :                 F             |
 |   Number of plotting points (along b_1)    :                50             |
 |   Plotting format                          :          xcrysden             |
 *----------------------------------------------------------------------------*
 |  Plotting interpolated bandstructure       :                 T             |
 |   Number of K-path sections                :                 4             |
 |   Divisions along first K-path section     :               100             |
 |   Output format                            :           gnuplot             |
 |   Output mode                              :               s-k             |
 *----------------------------------------------------------------------------*
 |   K-space path sections:                                                   |
 |    From: Γ      0.000  0.000  0.000     To: X       0.500  0.000  0.000   |
 |    From: X       0.500  0.000  0.000     To: S       0.500  0.500  0.000   |
 |    From: S       0.500  0.500  0.000     To: Y       0.000  0.500  0.000   |
 |    From: Y       0.000  0.500  0.000     To: Γ      0.000  0.000  0.000   |
 *----------------------------------------------------------------------------*
 |  Plotting Hamiltonian in WF basis          :                 T             |
 *----------------------------------------------------------------------------*
 |  Writing data for Van der Waals post-proc  :                 F             |
 *----------------------------------------------------------------------------*
 *------------------------------- TRANSPORT ----------------------------------*
 |  Transport mode                            :              bulk             |
 |   Hamiltonian from external files          :                 F             |
 |   System extended in                       :              none             |
 |   Centre of the unit cell to which WF are translated (fract. coords):      |
 |                                       0.000000,    0.000000,    0.000000   |
 |  Fermi energy (eV)                         :             0.000             |
 *----------------------------------------------------------------------------*
 Time to read parameters        0.023 (sec)

 *---------------------------------- K-MESH ----------------------------------*
 +----------------------------------------------------------------------------+
 |                    Distance to Nearest-Neighbour Shells                    |
 |                    ------------------------------------                    |
 |          Shell             Distance (Ang^-1)          Multiplicity         |
 |          -----             -----------------          ------------         |
 |             1                   0.265883                      2            |
 |             2                   0.526343                      6            |
 |             3                   0.531765                      2            |
 |             4                   0.589686                     12            |
 |             5                   0.748205                     12            |
 |             6                   0.797648                      2            |
 |             7                   0.911652                      6            |
 |             8                   0.949633                     12            |
 |             9                   0.955656                     12            |
 |            10                   1.052685                      6            |
 |            11                   1.055407                     12            |
 |            12                   1.063530                      2            |
 |            13                   1.085744                     12            |
 |            14                   1.179373                     12            |
 |            15                   1.186648                     12            |
 |            16                   1.211343                     12            |
 |            17                   1.320753                     12            |
 |            18                   1.329413                      2            |
 |            19                   1.392572                     12            |
 |            20                   1.400788                     12            |
 |            21                   1.417727                     24            |
 |            22                   1.429816                     12            |
 |            23                   1.490648                     24            |
 |            24                   1.496410                     12            |
 |            25                   1.579028                      6            |
 |            26                   1.601257                     12            |
 |            27                   1.604836                     24            |
 |            28                   1.611970                     12            |
 |            29                   1.666164                     12            |
 |            30                   1.695726                     12            |
 |            31                   1.752242                     24            |
 |            32                   1.769059                     12            |
 |            33                   1.823305                      6            |
 |            34                   1.842589                     12            |
 |            35                   1.897756                     12            |
 |            36                   1.899267                     12            |
 +----------------------------------------------------------------------------+
 | The b-vectors are chosen automatically                                     |
 | Shell:  1 Multiplicity:  2                                                 |
 | b-vector 1 :        0.000000    0.000000    0.265883      (Ang^-1)         |
 | b-vector 2 :        0.000000    0.000000   -0.265883      (Ang^-1)         |
 | Shell:  1 w_b    7.0727819      (Ang^2)                                    |
 | B1 condition is not satisfied: Adding another shell                        |
 | Shell:  2 Multiplicity:  6                                                 |
 | b-vector 1 :        0.455826    0.263171    0.000000      (Ang^-1)         |
 | b-vector 2 :        0.455826   -0.263171    0.000000      (Ang^-1)         |
 | b-vector 3 :        0.000000    0.526343    0.000000      (Ang^-1)         |
 | b-vector 4 :        0.000000   -0.526343    0.000000      (Ang^-1)         |
 | b-vector 5 :       -0.455826    0.263171    0.000000      (Ang^-1)         |
 | b-vector 6 :       -0.455826   -0.263171    0.000000      (Ang^-1)         |
 | Shell:  1 w_b    7.0727819      (Ang^2)                                    |
 | Shell:  2 w_b    1.2032104      (Ang^2)                                    |
 | The following shells are used:   1,  2                                     |
 +----------------------------------------------------------------------------+
 |                        Shell   # Nearest-Neighbours                        |
 |                        -----   --------------------                        |
 |                          1               2                                 |
 |                          2               6                                 |
 +----------------------------------------------------------------------------+
 | Completeness relation is fully satisfied [Eq. (B1), PRB 56, 12847 (1997)]  |
 +----------------------------------------------------------------------------+
 |                  b_k Vectors (Ang^-1) and Weights (Ang^2)                  |
 |                  ----------------------------------------                  |
 |            No.         b_k(x)      b_k(y)      b_k(z)        w_b           |
 |            ---        --------------------------------     --------        |
 |             1         0.000000    0.000000    0.265883     7.072782        |
 |             2         0.000000    0.000000   -0.265883     7.072782        |
 |             3         0.455826    0.263171    0.000000     1.203210        |
 |             4         0.455826   -0.263171    0.000000     1.203210        |
 |             5         0.000000    0.526343    0.000000     1.203210        |
 |             6         0.000000   -0.526343    0.000000     1.203210        |
 |             7        -0.455826    0.263171    0.000000     1.203210        |
 |             8        -0.455826   -0.263171    0.000000     1.203210        |
 +----------------------------------------------------------------------------+
 |                           b_k Directions (Ang^-1)                          |
 |                           -----------------------                          |
 |            No.           x           y           z                         |
 |            ---        --------------------------------                     |
 |             1         0.000000    0.000000    0.265883                     |
 |             2         0.455826    0.263171    0.000000                     |
 |             3         0.455826   -0.263171    0.000000                     |
 |             4         0.000000    0.526343    0.000000                     |
 +----------------------------------------------------------------------------+
  
 Time to get kmesh              0.008 (sec)
 *============================================================================*
 |                              MEMORY ESTIMATE                               |
 |         Maximum RAM allocated during each phase of the calculation         |
 *============================================================================*
 |                        Disentanglement           41.81 Mb                  |
 |                            Wannierise:           14.65 Mb                  |
 |                                                                            |
 |   N.B. by setting optimisation=0 memory usage will be reduced to:          |
 |                        Disentanglement           41.81 Mb                  |
 |                            Wannierise:           10.42 Mb                  |
 |   However, this will result in more i/o and slow down the calculation      |
 |                          plot_wannier:           14.65 Mb                  |
 *----------------------------------------------------------------------------*
  
 Starting a new Wannier90 calculation ...


 Reading overlaps from 2cr.down.mmn    :  Created on 20Jul2023 at 20:12:53

 Reading projections from 2cr.down.amn :  Created on 20Jul2023 at 20:11:42

 Time to read overlaps          4.097 (sec)

 *------------------------------- DISENTANGLE --------------------------------*
 +----------------------------------------------------------------------------+
 |                              Energy  Windows                               |
 |                              ---------------                               |
 |                   Outer:  -30.00000  to   30.00000  (eV)                   |
 |                   Inner:   -6.00000  to    2.50000  (eV)                   |
 +----------------------------------------------------------------------------+
 |                        K-points with Frozen States                         |
 |                        ---------------------------                         |
 |     1                                                                      |
 +----------------------------------------------------------------------------+
   Number of target bands to extract:  186
 +----------------------------------------------------------------------------+
 |                                  Windows                                   |
 |                                  -------                                   |
 |               K-point      Ndimwin     Ndimfroz    Nfirstwin               |
 |               ----------------------------------------------               |
 |                   1          378          160          73                  |
 +----------------------------------------------------------------------------+

                   Unitarised projection of Wannier functions                  
                   ------------------------------------------                  
   A_mn = <psi_m|g_n> --> S = A.A^+ --> U = S^-1/2.A
   In dis_project... done
   Using an inner window (linner = T)
   In dis_proj_froz...
 K-point   1 ndimwin: 378 we want the 26 leading eigenvector(s) of QPQ
  lambda(  1)= -0.000000000000
  lambda(  2)= -0.000000000000
  lambda(  3)= -0.000000000000
  lambda(  4)= -0.000000000000
  lambda(  5)= -0.000000000000
  lambda(  6)= -0.000000000000
  lambda(  7)= -0.000000000000
  lambda(  8)= -0.000000000000
  lambda(  9)= -0.000000000000
  lambda( 10)= -0.000000000000
  lambda( 11)= -0.000000000000
  lambda( 12)= -0.000000000000
  lambda( 13)= -0.000000000000
  lambda( 14)= -0.000000000000
  lambda( 15)= -0.000000000000
  lambda( 16)= -0.000000000000
  lambda( 17)= -0.000000000000
  lambda( 18)= -0.000000000000
  lambda( 19)= -0.000000000000
  lambda( 20)= -0.000000000000
  lambda( 21)= -0.000000000000
  lambda( 22)= -0.000000000000
  lambda( 23)= -0.000000000000
  lambda( 24)= -0.000000000000
  lambda( 25)= -0.000000000000
  lambda( 26)= -0.000000000000
  lambda( 27)= -0.000000000000
  lambda( 28)= -0.000000000000
  lambda( 29)= -0.000000000000
  lambda( 30)= -0.000000000000
  lambda( 31)= -0.000000000000
  lambda( 32)= -0.000000000000
  lambda( 33)= -0.000000000000
  lambda( 34)= -0.000000000000
  lambda( 35)= -0.000000000000
  lambda( 36)= -0.000000000000
  lambda( 37)= -0.000000000000
  lambda( 38)= -0.000000000000
  lambda( 39)= -0.000000000000
  lambda( 40)= -0.000000000000
  lambda( 41)= -0.000000000000
  lambda( 42)= -0.000000000000
  lambda( 43)= -0.000000000000
  lambda( 44)= -0.000000000000
  lambda( 45)= -0.000000000000
  lambda( 46)= -0.000000000000
  lambda( 47)= -0.000000000000
  lambda( 48)= -0.000000000000
  lambda( 49)= -0.000000000000
  lambda( 50)= -0.000000000000
  lambda( 51)= -0.000000000000
  lambda( 52)= -0.000000000000
  lambda( 53)= -0.000000000000
  lambda( 54)= -0.000000000000
  lambda( 55)= -0.000000000000
  lambda( 56)= -0.000000000000
  lambda( 57)= -0.000000000000
  lambda( 58)= -0.000000000000
  lambda( 59)= -0.000000000000
  lambda( 60)= -0.000000000000
  lambda( 61)= -0.000000000000
  lambda( 62)= -0.000000000000
  lambda( 63)= -0.000000000000
  lambda( 64)= -0.000000000000
  lambda( 65)= -0.000000000000
  lambda( 66)= -0.000000000000
  lambda( 67)= -0.000000000000
  lambda( 68)= -0.000000000000
  lambda( 69)= -0.000000000000
  lambda( 70)= -0.000000000000
  lambda( 71)= -0.000000000000
  lambda( 72)= -0.000000000000
  lambda( 73)= -0.000000000000
  lambda( 74)= -0.000000000000
  lambda( 75)= -0.000000000000
  lambda( 76)= -0.000000000000
  lambda( 77)= -0.000000000000
  lambda( 78)= -0.000000000000
  lambda( 79)= -0.000000000000
  lambda( 80)= -0.000000000000
  lambda( 81)= -0.000000000000
  lambda( 82)= -0.000000000000
  lambda( 83)= -0.000000000000
  lambda( 84)= -0.000000000000
  lambda( 85)= -0.000000000000
  lambda( 86)= -0.000000000000
  lambda( 87)= -0.000000000000
  lambda( 88)= -0.000000000000
  lambda( 89)= -0.000000000000
  lambda( 90)= -0.000000000000
  lambda( 91)= -0.000000000000
  lambda( 92)= -0.000000000000
  lambda( 93)= -0.000000000000
  lambda( 94)= -0.000000000000
  lambda( 95)=  0.000000000000
  lambda( 96)=  0.000000000000
  lambda( 97)=  0.000000000000
  lambda( 98)=  0.000000000000
  lambda( 99)=  0.000000000000
  lambda(100)=  0.000000000000
  lambda(101)=  0.000000000000
  lambda(102)=  0.000000000000
  lambda(103)=  0.000000000000
  lambda(104)=  0.000000000000
  lambda(105)=  0.000000000000
  lambda(106)=  0.000000000000
  lambda(107)=  0.000000000000
  lambda(108)=  0.000000000000
  lambda(109)=  0.000000000000
  lambda(110)=  0.000000000000
  lambda(111)=  0.000000000000
  lambda(112)=  0.000000000000
  lambda(113)=  0.000000000000
  lambda(114)=  0.000000000000
  lambda(115)=  0.000000000000
  lambda(116)=  0.000000000000
  lambda(117)=  0.000000000000
  lambda(118)=  0.000000000000
  lambda(119)=  0.000000000000
  lambda(120)=  0.000000000000
  lambda(121)=  0.000000000000
  lambda(122)=  0.000000000000
  lambda(123)=  0.000000000000
  lambda(124)=  0.000000000000
  lambda(125)=  0.000000000000
  lambda(126)=  0.000000000000
  lambda(127)=  0.000000000000
  lambda(128)=  0.000000000000
  lambda(129)=  0.000000000000
  lambda(130)=  0.000000000000
  lambda(131)=  0.000000000000
  lambda(132)=  0.000000000000
  lambda(133)=  0.000000000000
  lambda(134)=  0.000000000000
  lambda(135)=  0.000000000000
  lambda(136)=  0.000000000000
  lambda(137)=  0.000000000000
  lambda(138)=  0.000000000000
  lambda(139)=  0.000000000000
  lambda(140)=  0.000000000000
  lambda(141)=  0.000000000000
  lambda(142)=  0.000000000000
  lambda(143)=  0.000000000000
  lambda(144)=  0.000000000000
  lambda(145)=  0.000000000000
  lambda(146)=  0.000000000000
  lambda(147)=  0.000000000000
  lambda(148)=  0.000000000000
  lambda(149)=  0.000000000000
  lambda(150)=  0.000000000000
  lambda(151)=  0.000000000000
  lambda(152)=  0.000000000000
  lambda(153)=  0.000000000000
  lambda(154)=  0.000000000000
  lambda(155)=  0.000000000000
  lambda(156)=  0.000000000000
  lambda(157)=  0.000000000000
  lambda(158)=  0.000000000000
  lambda(159)=  0.000000000000
  lambda(160)=  0.000000000000
  lambda(161)=  0.000000000000
  lambda(162)=  0.000000000000
  lambda(163)=  0.000000000000
  lambda(164)=  0.000000000000
  lambda(165)=  0.000000000000
  lambda(166)=  0.000000000000
  lambda(167)=  0.000000000000
  lambda(168)=  0.000000000000
  lambda(169)=  0.000000000000
  lambda(170)=  0.000000000000
  lambda(171)=  0.000000000000
  lambda(172)=  0.000000000000
  lambda(173)=  0.000000000000
  lambda(174)=  0.000000000000
  lambda(175)=  0.000000000000
  lambda(176)=  0.000000000000
  lambda(177)=  0.000000000000
  lambda(178)=  0.000000000000
  lambda(179)=  0.000000000000
  lambda(180)=  0.000000000000
  lambda(181)=  0.000000000000
  lambda(182)=  0.000000000000
  lambda(183)=  0.000000000000
  lambda(184)=  0.000000000000
  lambda(185)=  0.000000000000
  lambda(186)=  0.000000000000
  lambda(187)=  0.000000000000
  lambda(188)=  0.000000000000
  lambda(189)=  0.000000000000
  lambda(190)=  0.000000000000
  lambda(191)=  0.000000000000
  lambda(192)=  0.000000000000
  lambda(193)=  0.000000007664
  lambda(194)=  0.000000015740
  lambda(195)=  0.000000043900
  lambda(196)=  0.000000060255
  lambda(197)=  0.000000081659
  lambda(198)=  0.000000097568
  lambda(199)=  0.000000175667
  lambda(200)=  0.000000229278
  lambda(201)=  0.000000248733
  lambda(202)=  0.000000394242
  lambda(203)=  0.000000453289
  lambda(204)=  0.000000599235
  lambda(205)=  0.000000938073
  lambda(206)=  0.000001167169
  lambda(207)=  0.000001236270
  lambda(208)=  0.000001730511
  lambda(209)=  0.000002316062
  lambda(210)=  0.000003240690
  lambda(211)=  0.000004729041
  lambda(212)=  0.000005935020
  lambda(213)=  0.000008402865
  lambda(214)=  0.000009327678
  lambda(215)=  0.000013199561
  lambda(216)=  0.000017473119
  lambda(217)=  0.000019300900
  lambda(218)=  0.000023273322
  lambda(219)=  0.000035673153
  lambda(220)=  0.000038408125
  lambda(221)=  0.000050945266
  lambda(222)=  0.000056979156
  lambda(223)=  0.000065925897
  lambda(224)=  0.000088291953
  lambda(225)=  0.000118787994
  lambda(226)=  0.000130988994
  lambda(227)=  0.000177983692
  lambda(228)=  0.000196744351
  lambda(229)=  0.000236555346
  lambda(230)=  0.000284384088
  lambda(231)=  0.000330519872
  lambda(232)=  0.000377489775
  lambda(233)=  0.000426339036
  lambda(234)=  0.000505910053
  lambda(235)=  0.000558741473
  lambda(236)=  0.000583896836
  lambda(237)=  0.000788889745
  lambda(238)=  0.000845994743
  lambda(239)=  0.000959440716
  lambda(240)=  0.001145794665
  lambda(241)=  0.001319213089
  lambda(242)=  0.001651525399
  lambda(243)=  0.001697272129
  lambda(244)=  0.001805061907
  lambda(245)=  0.002226491652
  lambda(246)=  0.002476899362
  lambda(247)=  0.002590600879
  lambda(248)=  0.002704588141
  lambda(249)=  0.002975535994
  lambda(250)=  0.003411053959
  lambda(251)=  0.003476868239
  lambda(252)=  0.003727028404
  lambda(253)=  0.005077375603
  lambda(254)=  0.005387246648
  lambda(255)=  0.005617257314
  lambda(256)=  0.005910369711
  lambda(257)=  0.006618987475
  lambda(258)=  0.006998934327
  lambda(259)=  0.007100405681
  lambda(260)=  0.007793689833
  lambda(261)=  0.008837284701
  lambda(262)=  0.009124952297
  lambda(263)=  0.009740839011
  lambda(264)=  0.010476764498
  lambda(265)=  0.011372680380
  lambda(266)=  0.011828619094
  lambda(267)=  0.012871593875
  lambda(268)=  0.013610311236
  lambda(269)=  0.014547198384
  lambda(270)=  0.015036065672
  lambda(271)=  0.015631304606
  lambda(272)=  0.017163546772
  lambda(273)=  0.017792171056
  lambda(274)=  0.019417205675
  lambda(275)=  0.020264999674
  lambda(276)=  0.021519087346
  lambda(277)=  0.022661590529
  lambda(278)=  0.027290212474
  lambda(279)=  0.029740596198
  lambda(280)=  0.031317118199
  lambda(281)=  0.031917083351
  lambda(282)=  0.032822922069
  lambda(283)=  0.033529142675
  lambda(284)=  0.034424354321
  lambda(285)=  0.035083031250
  lambda(286)=  0.035770608284
  lambda(287)=  0.038130823495
  lambda(288)=  0.041192982298
  lambda(289)=  0.041852248446
  lambda(290)=  0.046155331541
  lambda(291)=  0.047071048753
  lambda(292)=  0.048035523416
  lambda(293)=  0.050119799510
  lambda(294)=  0.051477387629
  lambda(295)=  0.053381588732
  lambda(296)=  0.055422212697
  lambda(297)=  0.055531326108
  lambda(298)=  0.059086687946
  lambda(299)=  0.061179348986
  lambda(300)=  0.062312102364
  lambda(301)=  0.065385824209
  lambda(302)=  0.066812776036
  lambda(303)=  0.067693462555
  lambda(304)=  0.070052106722
  lambda(305)=  0.070990992286
  lambda(306)=  0.072897150054
  lambda(307)=  0.073501694142
  lambda(308)=  0.077938771182
  lambda(309)=  0.079804649342
  lambda(310)=  0.096583523556
  lambda(311)=  0.103726328535
  lambda(312)=  0.106647846635
  lambda(313)=  0.113903214467
  lambda(314)=  0.114790600226
  lambda(315)=  0.118487282586
  lambda(316)=  0.118681710106
  lambda(317)=  0.120414929045
  lambda(318)=  0.122229460724
  lambda(319)=  0.123317659104
  lambda(320)=  0.125412434855
  lambda(321)=  0.131399978426
  lambda(322)=  0.132497476709
  lambda(323)=  0.133282248875
  lambda(324)=  0.134725250420
  lambda(325)=  0.135812867162
  lambda(326)=  0.138422219406
  lambda(327)=  0.144308140110
  lambda(328)=  0.145132726601
  lambda(329)=  0.155680485811
  lambda(330)=  0.159864689800
  lambda(331)=  0.163047838592
  lambda(332)=  0.167250718288
  lambda(333)=  0.169933294163
  lambda(334)=  0.170711686957
  lambda(335)=  0.172427393097
  lambda(336)=  0.173808953369
  lambda(337)=  0.174781076438
  lambda(338)=  0.177370214984
  lambda(339)=  0.180057899788
  lambda(340)=  0.184246338112
  lambda(341)=  0.186486028160
  lambda(342)=  0.189545546923
  lambda(343)=  0.194374417389
  lambda(344)=  0.194805314462
  lambda(345)=  0.196017703891
  lambda(346)=  0.201332009133
  lambda(347)=  0.212129955139
  lambda(348)=  0.248907329665
  lambda(349)=  0.270240682186
  lambda(350)=  0.287151138867
  lambda(351)=  0.314114261393
  lambda(352)=  0.558772426164
  lambda(353)=  1.000000000000
  lambda(354)=  1.000000000000
  lambda(355)=  1.000000000000
  lambda(356)=  1.000000000000
  lambda(357)=  1.000000000000
  lambda(358)=  1.000000000000
  lambda(359)=  1.000000000000
  lambda(360)=  1.000000000000
  lambda(361)=  1.000000000000
  lambda(362)=  1.000000000000
  lambda(363)=  1.000000000000
  lambda(364)=  1.000000000000
  lambda(365)=  1.000000000000
  lambda(366)=  1.000000000000
  lambda(367)=  1.000000000000
  lambda(368)=  1.000000000000
  lambda(369)=  1.000000000000
  lambda(370)=  1.000000000000
  lambda(371)=  1.000000000000
  lambda(372)=  1.000000000000
  lambda(373)=  1.000000000000
  lambda(374)=  1.000000000000
  lambda(375)=  1.000000000000
  lambda(376)=  1.000000000000
  lambda(377)=  1.000000000000
  lambda(378)=  1.000000000000
 done

                   Extraction of optimally-connected subspace                  
                   ------------------------------------------                  
  Original eigenvalues inside outer window:

  K-point   1   -15.72149 -14.91572 -14.66804 -14.63967 -14.34862 -14.30137 -14.12530 -14.02712 -13.97928 -13.96504 -13.80423 -13.78554 -13.64115 -13.51952 -13.51414 -13.50607 -13.44451 -13.40318 -13.36741 -13.35682
-13.33332 -13.32783 -13.32010 -13.24949 -13.24625 -13.23230 -13.19918 -13.17313 -13.16513 -13.15516 -13.12624 -13.11422  -6.99367  -6.71445  -6.51340  -6.38213  -6.06734  -5.93476  -5.89937  -5.84761
 -5.81960  -5.77850  -5.71254  -5.66336  -5.59597  -5.52047  -5.47141  -5.44273  -5.43195  -5.40121  -5.39168  -5.36390  -5.33106  -5.32210  -5.27483  -5.25744  -5.20970  -5.14882  -5.12960  -5.02607
 -4.90766  -4.78701  -4.73951  -4.68332  -4.60797  -4.57670  -4.53706  -4.53265  -4.49432  -4.46740  -4.44582  -4.41051  -4.34113  -4.29999  -4.26602  -4.25283  -4.22475  -4.21917  -4.09189  -4.01408
 -3.96776  -3.94817  -3.89031  -3.88610  -3.77192  -3.73967  -3.69106  -3.68552  -3.66296  -3.61868  -3.58988  -3.56285  -3.53272  -3.45405  -3.39107  -3.24960  -3.13765  -3.04875  -2.98878  -2.96736
 -2.93057  -2.92814  -2.90101  -2.88220  -2.86483  -2.74482  -2.69731  -2.65222  -2.61474  -2.58552  -2.57791  -2.51521  -2.50541  -2.48806  -2.46088  -2.43515  -2.41418  -2.35902  -2.34335  -2.32812
 -2.29300  -2.28547  -2.28201  -2.07907  -2.06179  -1.96625  -1.94773  -1.92719  -1.87871  -1.76923  -1.63842  -1.55522  -1.50496  -1.43214  -1.37326  -1.36255  -1.30751  -1.25793  -1.24247  -1.17566
 -1.12510  -1.06913  -1.02027  -0.77866  -0.14034   0.15973   0.53851   0.70966   0.73388   0.81794   0.91731   0.95418   1.00465   1.03989   1.10523   1.12855   1.16608   1.19366   1.25447   1.27138
  1.29060   1.30027   1.33646   1.34604   1.37498   1.38927   1.42562   1.44920   1.50240   1.51821   1.55217   1.61470   1.62994   1.64291   1.68392   1.71868   1.73287   1.76254   1.78601   1.81421
  1.83850   1.86091   1.87983   1.89859   1.92300   1.93119   1.98026   1.99644   2.01026   2.04401   2.07026   2.15628   2.18578   2.25276   2.29640   2.38941   2.42371   2.50328   2.57402   2.61351
  2.68812   2.72854   2.77399   2.90080   2.91448   2.98569   3.05426   3.15676   3.18789   3.20869   3.27375   3.33059   3.37089   3.40170   3.43038   3.50567   3.52797   3.59362   3.66385   3.88294
  3.94491   3.99080   4.18304   4.32941   4.38918   4.42268   4.46945   4.51148   4.51987   4.54995   4.57164   4.73096   4.75446   4.76953   4.80261   4.80486   4.81717   4.83764   5.00277   5.01765
  5.02139   5.04349   5.05695   5.07127   5.24329   5.36800   5.55210   5.62806   5.68358   5.71717   5.75855   5.79536   5.80717   5.81893   5.83137   5.85255   5.85469   5.88067   5.97132   5.97909
  6.00081   6.02631   6.09062   6.09804   6.11315   6.13763   6.16283   6.18202   6.19233   6.21224   6.22890   6.24623   6.27914   6.32653   6.35227   6.39967   6.44264   6.48478   6.49335   6.50947
  6.51153   6.51870   6.67262   6.72560   6.77353   6.79945   6.84690   6.86601   6.91373   6.91983   6.92566   6.93044   6.93478   6.94226   6.95280   6.96155   6.96869   7.02620   7.17744   7.20128
  7.21865   7.23357   7.25072   7.27197   7.28256   7.28892   7.32396   7.37282   7.40102   7.40818   7.51059   7.51681   7.53398   7.55073   7.56887   7.57116   7.59694   7.60330   7.61163   7.61605
  7.61862   7.62664   7.64716   7.64910   7.67460   7.70118   7.71456   7.75807   7.80138   7.87622   7.88393   7.89397   7.90414   7.91317   7.96080   7.98929   7.99168   7.99575   8.09124   8.10007
  8.12776   8.24263   8.29233   8.32251   8.33573   8.35850   8.37379   8.38875   8.39920   8.40897   8.41304   8.43228   8.46858   8.48085   8.48986   8.49517   8.52937   8.53578   8.56212   8.76441
  8.82015   8.83855   8.87431   8.87903   8.89300   8.90610   8.91370   8.92131   8.96207   9.04354   9.06224   9.08997   9.11142   9.11757   9.13197   9.14998   9.18929   9.23515
 +---------------------------------------------------------------------+<-- DIS
 |  Iter     Omega_I(i-1)      Omega_I(i)      Delta (frac.)    Time   |<-- DIS
 +---------------------------------------------------------------------+<-- DIS
       1     318.33753285     315.57063201       8.768E-03      0.00    <-- DIS
       2     315.99112752     314.71722789       4.048E-03      0.20    <-- DIS
       3     315.07737407     314.11421335       3.066E-03      0.40    <-- DIS
       4     314.38822447     313.66525147       2.305E-03      0.59    <-- DIS
       5     313.86762280     313.32263257       1.739E-03      0.79    <-- DIS
       6     313.47111744     313.05624664       1.325E-03      0.99    <-- DIS
       7     313.16561868     312.84589825       1.022E-03      1.19    <-- DIS
       8     312.92719240     312.67759052       7.983E-04      1.39    <-- DIS
       9     312.73868968     312.54137263       6.313E-04      1.59    <-- DIS
      10     312.58780807     312.43001625       5.050E-04      1.79    <-- DIS
      11     312.46565599     312.33817182       4.082E-04      1.98    <-- DIS
      12     312.36573591     312.26181521       3.328E-04      2.18    <-- DIS
      13     312.28323831     312.19787564       2.734E-04      2.38    <-- DIS
      14     312.21455460     312.14398003       2.261E-04      2.58    <-- DIS
      15     312.15694070     312.09827375       1.880E-04      2.78    <-- DIS
      16     312.10828300     312.05929283       1.570E-04      2.98    <-- DIS
      17     312.06693401     312.02587125       1.316E-04      3.18    <-- DIS
      18     312.03159550     311.99707285       1.107E-04      3.38    <-- DIS
      19     312.00123430     311.97214051       9.326E-05      3.58    <-- DIS
      20     311.97502091     311.95045785       7.874E-05      3.77    <-- DIS
      21     311.95228398     311.93152002       6.657E-05      3.97    <-- DIS
      22     311.93247628     311.91491123       5.631E-05      4.17    <-- DIS
      23     311.91514883     311.90028727       4.765E-05      4.38    <-- DIS
      24     311.89993108     311.88736179       4.030E-05      4.57    <-- DIS
      25     311.88651559     311.87589553       3.405E-05      4.77    <-- DIS
      26     311.87464596     311.86568771       2.872E-05      4.97    <-- DIS
      27     311.86410742     311.85656914       2.417E-05      5.18    <-- DIS
      28     311.85471926     311.84839673       2.027E-05      5.38    <-- DIS
      29     311.84632881     311.84104900       1.693E-05      5.58    <-- DIS
      30     311.83880661     311.83442246       1.406E-05      5.78    <-- DIS
      31     311.83204247     311.82842861       1.159E-05      5.97    <-- DIS
      32     311.82594226     311.82299156       9.463E-06      6.17    <-- DIS
      33     311.82042533     311.81804599       7.631E-06      6.37    <-- DIS
      34     311.81542232     311.81353553       6.051E-06      6.57    <-- DIS
      35     311.81087340     311.80941136       4.689E-06      6.77    <-- DIS
      36     311.80672682     311.80563106       3.514E-06      6.97    <-- DIS
      37     311.80293769     311.80215771       2.501E-06      7.17    <-- DIS
      38     311.79946691     311.79895906       1.629E-06      7.37    <-- DIS
      39     311.79628039     311.79600683       8.774E-07      7.57    <-- DIS
      40     311.79334829     311.79327622       2.312E-07      7.77    <-- DIS
      41     311.79064444     311.79074536      -3.237E-07      7.96    <-- DIS
      42     311.78814583     311.78839497      -7.991E-07      8.17    <-- DIS
      43     311.78583214     311.78620796      -1.205E-06      8.36    <-- DIS
      44     311.78368545     311.78416919      -1.552E-06      8.56    <-- DIS
      45     311.78168985     311.78226517      -1.845E-06      8.76    <-- DIS
      46     311.77983125     311.78048391      -2.093E-06      8.96    <-- DIS
      47     311.77809707     311.77881467      -2.302E-06      9.15    <-- DIS
      48     311.77647613     311.77724784      -2.475E-06      9.35    <-- DIS
      49     311.77495842     311.77577482      -2.619E-06      9.56    <-- DIS
      50     311.77353497     311.77438785      -2.736E-06      9.75    <-- DIS
      51     311.77219776     311.77307997      -2.830E-06      9.95    <-- DIS
      52     311.77093956     311.77184487      -2.904E-06     10.15    <-- DIS
      53     311.76975387     311.77067688      -2.961E-06     10.35    <-- DIS
      54     311.76863482     311.76957084      -3.002E-06     10.55    <-- DIS
      55     311.76757711     311.76852208      -3.031E-06     10.74    <-- DIS
      56     311.76657596     311.76752635      -3.048E-06     10.94    <-- DIS
      57     311.76562702     311.76657980      -3.056E-06     11.14    <-- DIS
      58     311.76472633     311.76567890      -3.055E-06     11.34    <-- DIS
      59     311.76387033     311.76482045      -3.048E-06     11.54    <-- DIS
      60     311.76305575     311.76400150      -3.034E-06     11.74    <-- DIS
      61     311.76227962     311.76321939      -3.014E-06     11.94    <-- DIS
      62     311.76153921     311.76247164      -2.991E-06     12.14    <-- DIS
      63     311.76083207     311.76175599      -2.964E-06     12.34    <-- DIS
      64     311.76015591     311.76107039      -2.933E-06     12.53    <-- DIS
      65     311.75950866     311.76041291      -2.900E-06     12.73    <-- DIS
      66     311.75888842     311.75978181      -2.866E-06     12.93    <-- DIS
      67     311.75829344     311.75917546      -2.829E-06     13.13    <-- DIS
      68     311.75772211     311.75859238      -2.791E-06     13.33    <-- DIS
      69     311.75717295     311.75803118      -2.753E-06     13.53    <-- DIS
      70     311.75664461     311.75749059      -2.714E-06     13.72    <-- DIS
      71     311.75613582     311.75696943      -2.674E-06     13.92    <-- DIS
      72     311.75564544     311.75646661      -2.634E-06     14.12    <-- DIS
      73     311.75517238     311.75598112      -2.594E-06     14.32    <-- DIS
      74     311.75471566     311.75551200      -2.554E-06     14.52    <-- DIS
      75     311.75427437     311.75505840      -2.515E-06     14.71    <-- DIS
      76     311.75384766     311.75461949      -2.476E-06     14.91    <-- DIS
      77     311.75343473     311.75419452      -2.437E-06     15.11    <-- DIS
      78     311.75303487     311.75378278      -2.399E-06     15.31    <-- DIS
      79     311.75264739     311.75338361      -2.362E-06     15.51    <-- DIS
      80     311.75227167     311.75299641      -2.325E-06     15.70    <-- DIS
      81     311.75190711     311.75262059      -2.289E-06     15.90    <-- DIS
      82     311.75155317     311.75225563      -2.253E-06     16.10    <-- DIS
      83     311.75120934     311.75190102      -2.219E-06     16.30    <-- DIS
      84     311.75087514     311.75155629      -2.185E-06     16.50    <-- DIS
      85     311.75055013     311.75122100      -2.152E-06     16.70    <-- DIS
      86     311.75023390     311.75089474      -2.120E-06     16.90    <-- DIS
      87     311.74992606     311.75057712      -2.088E-06     17.09    <-- DIS
      88     311.74962623     311.75026777      -2.058E-06     17.30    <-- DIS
      89     311.74933409     311.74996635      -2.028E-06     17.49    <-- DIS
      90     311.74904931     311.74967255      -1.999E-06     17.69    <-- DIS
      91     311.74877159     311.74938605      -1.971E-06     17.89    <-- DIS
      92     311.74850064     311.74910657      -1.944E-06     18.09    <-- DIS
      93     311.74823621     311.74883384      -1.917E-06     18.29    <-- DIS
      94     311.74797804     311.74856761      -1.891E-06     18.48    <-- DIS
      95     311.74772589     311.74830763      -1.866E-06     18.68    <-- DIS
      96     311.74747954     311.74805367      -1.842E-06     18.88    <-- DIS
      97     311.74723879     311.74780552      -1.818E-06     19.08    <-- DIS
      98     311.74700343     311.74756297      -1.795E-06     19.28    <-- DIS
      99     311.74677327     311.74732583      -1.772E-06     19.48    <-- DIS
     100     311.74654814     311.74709392      -1.751E-06     19.67    <-- DIS
     101     311.74632787     311.74686706      -1.730E-06     19.87    <-- DIS
     102     311.74611230     311.74664508      -1.709E-06     20.07    <-- DIS
     103     311.74590128     311.74642783      -1.689E-06     20.27    <-- DIS
     104     311.74569465     311.74621516      -1.670E-06     20.47    <-- DIS
     105     311.74549229     311.74600692      -1.651E-06     20.66    <-- DIS
     106     311.74529407     311.74580297      -1.632E-06     20.86    <-- DIS
     107     311.74509985     311.74560319      -1.615E-06     21.06    <-- DIS
     108     311.74490953     311.74540745      -1.597E-06     21.26    <-- DIS
     109     311.74472298     311.74521563      -1.580E-06     21.46    <-- DIS
     110     311.74454010     311.74502762      -1.564E-06     21.66    <-- DIS
     111     311.74436079     311.74484331      -1.548E-06     21.86    <-- DIS
     112     311.74418495     311.74466259      -1.532E-06     22.05    <-- DIS
     113     311.74401247     311.74448537      -1.517E-06     22.25    <-- DIS
     114     311.74384328     311.74431155      -1.502E-06     22.45    <-- DIS
     115     311.74367728     311.74414104      -1.488E-06     22.65    <-- DIS
     116     311.74351440     311.74397374      -1.473E-06     22.85    <-- DIS
     117     311.74335454     311.74380959      -1.460E-06     23.05    <-- DIS
     118     311.74319764     311.74364849      -1.446E-06     23.25    <-- DIS
     119     311.74304362     311.74349036      -1.433E-06     23.45    <-- DIS
     120     311.74289241     311.74333513      -1.420E-06     23.65    <-- DIS
     121     311.74274393     311.74318273      -1.408E-06     23.84    <-- DIS
     122     311.74259813     311.74303309      -1.395E-06     24.04    <-- DIS
     123     311.74245494     311.74288614      -1.383E-06     24.24    <-- DIS
     124     311.74231430     311.74274182      -1.371E-06     24.44    <-- DIS
     125     311.74217614     311.74260006      -1.360E-06     24.64    <-- DIS
     126     311.74204042     311.74246080      -1.348E-06     24.83    <-- DIS
     127     311.74190707     311.74232399      -1.337E-06     25.03    <-- DIS
     128     311.74177605     311.74218956      -1.326E-06     25.23    <-- DIS
     129     311.74164729     311.74205747      -1.316E-06     25.43    <-- DIS
     130     311.74152076     311.74192766      -1.305E-06     25.63    <-- DIS
     131     311.74139639     311.74180007      -1.295E-06     25.83    <-- DIS
     132     311.74127415     311.74167466      -1.285E-06     26.02    <-- DIS
     133     311.74115399     311.74155139      -1.275E-06     26.22    <-- DIS
     134     311.74103587     311.74143020      -1.265E-06     26.42    <-- DIS
     135     311.74091973     311.74131105      -1.255E-06     26.62    <-- DIS
     136     311.74080554     311.74119389      -1.246E-06     26.82    <-- DIS
     137     311.74069326     311.74107869      -1.236E-06     27.02    <-- DIS
     138     311.74058285     311.74096540      -1.227E-06     27.21    <-- DIS
     139     311.74047427     311.74085398      -1.218E-06     27.41    <-- DIS
     140     311.74036749     311.74074439      -1.209E-06     27.61    <-- DIS
     141     311.74026246     311.74063660      -1.200E-06     27.81    <-- DIS
     142     311.74015915     311.74053057      -1.191E-06     28.00    <-- DIS
     143     311.74005754     311.74042625      -1.183E-06     28.20    <-- DIS
     144     311.73995757     311.74032363      -1.174E-06     28.40    <-- DIS
     145     311.73985923     311.74022266      -1.166E-06     28.60    <-- DIS
     146     311.73976247     311.74012331      -1.157E-06     28.80    <-- DIS
     147     311.73966728     311.74002555      -1.149E-06     28.99    <-- DIS
     148     311.73957361     311.73992934      -1.141E-06     29.19    <-- DIS
     149     311.73948145     311.73983466      -1.133E-06     29.40    <-- DIS
     150     311.73939075     311.73974148      -1.125E-06     29.60    <-- DIS
     151     311.73930150     311.73964977      -1.117E-06     29.79    <-- DIS
     152     311.73921366     311.73955950      -1.109E-06     29.99    <-- DIS
     153     311.73912721     311.73947064      -1.102E-06     30.19    <-- DIS
     154     311.73904213     311.73938316      -1.094E-06     30.39    <-- DIS
     155     311.73895838     311.73929705      -1.086E-06     30.59    <-- DIS
     156     311.73887594     311.73921227      -1.079E-06     30.79    <-- DIS
     157     311.73879479     311.73912880      -1.071E-06     30.99    <-- DIS
     158     311.73871491     311.73904661      -1.064E-06     31.19    <-- DIS
     159     311.73863627     311.73896568      -1.057E-06     31.39    <-- DIS
     160     311.73855885     311.73888599      -1.049E-06     31.59    <-- DIS
     161     311.73848262     311.73880752      -1.042E-06     31.79    <-- DIS
     162     311.73840757     311.73873024      -1.035E-06     31.99    <-- DIS
     163     311.73833367     311.73865413      -1.028E-06     32.19    <-- DIS
     164     311.73826091     311.73857917      -1.021E-06     32.39    <-- DIS
     165     311.73818926     311.73850534      -1.014E-06     32.59    <-- DIS
     166     311.73811870     311.73843262      -1.007E-06     32.79    <-- DIS
     167     311.73804922     311.73836099      -1.000E-06     32.99    <-- DIS
     168     311.73798079     311.73829043      -9.933E-07     33.19    <-- DIS
     169     311.73791340     311.73822092      -9.865E-07     33.39    <-- DIS
     170     311.73784703     311.73815244      -9.797E-07     33.59    <-- DIS
     171     311.73778166     311.73808498      -9.730E-07     33.79    <-- DIS
     172     311.73771727     311.73801852      -9.664E-07     33.99    <-- DIS
     173     311.73765385     311.73795303      -9.597E-07     34.19    <-- DIS
     174     311.73759137     311.73788851      -9.532E-07     34.39    <-- DIS
     175     311.73752983     311.73782494      -9.466E-07     34.59    <-- DIS
     176     311.73746921     311.73776229      -9.402E-07     34.79    <-- DIS
     177     311.73740949     311.73770056      -9.337E-07     34.98    <-- DIS
     178     311.73735065     311.73763973      -9.273E-07     35.18    <-- DIS
     179     311.73729269     311.73757978      -9.209E-07     35.38    <-- DIS
     180     311.73723558     311.73752070      -9.146E-07     35.58    <-- DIS
     181     311.73717931     311.73746247      -9.083E-07     35.78    <-- DIS
     182     311.73712388     311.73740508      -9.021E-07     35.98    <-- DIS
     183     311.73706925     311.73734852      -8.958E-07     36.18    <-- DIS
     184     311.73701543     311.73729277      -8.897E-07     36.38    <-- DIS
     185     311.73696239     311.73723781      -8.835E-07     36.58    <-- DIS
     186     311.73691013     311.73718365      -8.774E-07     36.78    <-- DIS
     187     311.73685862     311.73713025      -8.713E-07     36.98    <-- DIS
     188     311.73680787     311.73707761      -8.653E-07     37.18    <-- DIS
     189     311.73675785     311.73702572      -8.593E-07     37.38    <-- DIS
     190     311.73670855     311.73697457      -8.533E-07     37.58    <-- DIS
     191     311.73665997     311.73692414      -8.474E-07     37.78    <-- DIS
     192     311.73661209     311.73687441      -8.415E-07     37.98    <-- DIS
     193     311.73656490     311.73682539      -8.356E-07     38.18    <-- DIS
     194     311.73651838     311.73677706      -8.298E-07     38.38    <-- DIS
     195     311.73647253     311.73672940      -8.240E-07     38.57    <-- DIS
     196     311.73642734     311.73668241      -8.182E-07     38.77    <-- DIS
     197     311.73638279     311.73663608      -8.125E-07     38.97    <-- DIS
     198     311.73633888     311.73659039      -8.068E-07     39.17    <-- DIS
     199     311.73629560     311.73654533      -8.011E-07     39.37    <-- DIS
     200     311.73625292     311.73650091      -7.955E-07     39.57    <-- DIS
     201     311.73621086     311.73645709      -7.899E-07     39.77    <-- DIS
     202     311.73616939     311.73641388      -7.843E-07     39.97    <-- DIS
     203     311.73612850     311.73637127      -7.788E-07     40.17    <-- DIS
     204     311.73608819     311.73632924      -7.733E-07     40.37    <-- DIS
     205     311.73604845     311.73628779      -7.678E-07     40.57    <-- DIS
     206     311.73600927     311.73624691      -7.623E-07     40.77    <-- DIS
     207     311.73597064     311.73620659      -7.569E-07     40.97    <-- DIS
     208     311.73593254     311.73616682      -7.515E-07     41.17    <-- DIS
     209     311.73589499     311.73612760      -7.462E-07     41.37    <-- DIS
     210     311.73585795     311.73608890      -7.408E-07     41.56    <-- DIS
     211     311.73582144     311.73605073      -7.356E-07     41.77    <-- DIS
     212     311.73578543     311.73601308      -7.303E-07     41.97    <-- DIS
     213     311.73574992     311.73597595      -7.251E-07     42.17    <-- DIS
     214     311.73571490     311.73593931      -7.199E-07     42.37    <-- DIS
     215     311.73568037     311.73590317      -7.147E-07     42.57    <-- DIS
     216     311.73564632     311.73586751      -7.095E-07     42.77    <-- DIS
     217     311.73561274     311.73583233      -7.044E-07     42.97    <-- DIS
     218     311.73557962     311.73579763      -6.994E-07     43.17    <-- DIS
     219     311.73554695     311.73576339      -6.943E-07     43.36    <-- DIS
     220     311.73551474     311.73572961      -6.893E-07     43.56    <-- DIS
     221     311.73548297     311.73569629      -6.843E-07     43.77    <-- DIS
     222     311.73545163     311.73566340      -6.793E-07     43.97    <-- DIS
     223     311.73542072     311.73563096      -6.744E-07     44.16    <-- DIS
     224     311.73539024     311.73559895      -6.695E-07     44.36    <-- DIS
     225     311.73536017     311.73556736      -6.646E-07     44.56    <-- DIS
     226     311.73533051     311.73553619      -6.598E-07     44.76    <-- DIS
     227     311.73530125     311.73550543      -6.550E-07     44.96    <-- DIS
     228     311.73527240     311.73547509      -6.502E-07     45.16    <-- DIS
     229     311.73524393     311.73544514      -6.454E-07     45.36    <-- DIS
     230     311.73521585     311.73541559      -6.407E-07     45.56    <-- DIS
     231     311.73518815     311.73538642      -6.360E-07     45.76    <-- DIS
     232     311.73516083     311.73535764      -6.313E-07     45.96    <-- DIS
     233     311.73513387     311.73532924      -6.267E-07     46.16    <-- DIS
     234     311.73510728     311.73530121      -6.221E-07     46.36    <-- DIS
     235     311.73508105     311.73527355      -6.175E-07     46.55    <-- DIS
     236     311.73505516     311.73524625      -6.130E-07     46.75    <-- DIS
     237     311.73502963     311.73521930      -6.084E-07     46.95    <-- DIS
     238     311.73500444     311.73519271      -6.039E-07     47.15    <-- DIS
     239     311.73497959     311.73516647      -5.995E-07     47.35    <-- DIS
     240     311.73495507     311.73514056      -5.950E-07     47.55    <-- DIS
     241     311.73493087     311.73511500      -5.906E-07     47.75    <-- DIS
     242     311.73490700     311.73508976      -5.863E-07     47.95    <-- DIS
     243     311.73488345     311.73506485      -5.819E-07     48.15    <-- DIS
     244     311.73486022     311.73504027      -5.776E-07     48.35    <-- DIS
     245     311.73483729     311.73501600      -5.733E-07     48.55    <-- DIS
     246     311.73481467     311.73499204      -5.690E-07     48.74    <-- DIS
     247     311.73479234     311.73496840      -5.648E-07     48.94    <-- DIS
     248     311.73477032     311.73494506      -5.605E-07     49.14    <-- DIS
     249     311.73474858     311.73492202      -5.564E-07     49.34    <-- DIS
     250     311.73472713     311.73489927      -5.522E-07     49.54    <-- DIS
     251     311.73470597     311.73487682      -5.481E-07     49.74    <-- DIS
     252     311.73468509     311.73485466      -5.440E-07     49.94    <-- DIS
     253     311.73466448     311.73483278      -5.399E-07     50.14    <-- DIS
     254     311.73464414     311.73481118      -5.358E-07     50.34    <-- DIS
     255     311.73462407     311.73478985      -5.318E-07     50.54    <-- DIS
     256     311.73460427     311.73476880      -5.278E-07     50.73    <-- DIS
     257     311.73458472     311.73474802      -5.238E-07     50.93    <-- DIS
     258     311.73456543     311.73472750      -5.199E-07     51.13    <-- DIS
     259     311.73454640     311.73470724      -5.160E-07     51.33    <-- DIS
     260     311.73452761     311.73468724      -5.121E-07     51.53    <-- DIS
     261     311.73450907     311.73466750      -5.082E-07     51.73    <-- DIS
     262     311.73449077     311.73464800      -5.044E-07     51.92    <-- DIS
     263     311.73447271     311.73462876      -5.006E-07     52.12    <-- DIS
     264     311.73445489     311.73460975      -4.968E-07     52.32    <-- DIS
     265     311.73443730     311.73459099      -4.930E-07     52.52    <-- DIS
     266     311.73441994     311.73457246      -4.893E-07     52.72    <-- DIS
[...]
  WF centre and spread   93  (  1.727423,  1.011690,  0.059471 )     1.79099200
  WF centre and spread   94  (  1.720961,  0.988488,  3.475621 )     2.03000979
  WF centre and spread   95  (  1.726458,  0.983073,  3.341235 )     1.80319137
  WF centre and spread   96  (  1.726105,  1.016996,  3.338344 )     1.80191599
  WF centre and spread   97  (  5.171987,  0.975185, -0.129156 )     2.02357502
  WF centre and spread   98  (  5.167394,  0.960540,  0.005802 )     1.80920925
  WF centre and spread   99  (  5.163470,  0.984085,  0.003892 )     1.79928137
  WF centre and spread  100  (  5.159523,  1.054833,  3.451835 )     2.02644131
  WF centre and spread  101  (  5.164904,  1.047355,  3.319982 )     1.80201101
  WF centre and spread  102  (  5.161409,  1.070352,  3.317599 )     1.82263614
  WF centre and spread  103  ( -5.167453,  0.975350, -0.123784 )     2.02855866
  WF centre and spread  104  ( -5.156524,  0.963354,  0.001642 )     1.79310258
  WF centre and spread  105  ( -5.163449,  0.988981,  0.004268 )     1.80597304
  WF centre and spread  106  ( -5.164625,  1.048362,  3.449728 )     2.03763650
  WF centre and spread  107  ( -5.153924,  1.048553,  3.313128 )     1.80778587
  WF centre and spread  108  ( -5.156190,  1.066667,  3.322078 )     1.83663745
  WF centre and spread  109  ( -1.737888,  1.004676, -0.071477 )     2.03258011
  WF centre and spread  110  ( -1.727007,  0.982017,  0.062711 )     1.81104496
  WF centre and spread  111  ( -1.729285,  1.006793,  0.058410 )     1.79430707
  WF centre and spread  112  ( -1.725638,  0.981046,  3.476122 )     2.02341775
  WF centre and spread  113  ( -1.727541,  0.976663,  3.340929 )     1.82202611
  WF centre and spread  114  ( -1.730057,  1.011437,  3.340337 )     1.82810960
  WF centre and spread  115  ( -3.428786,  3.989300, -0.124525 )     2.02599897
  WF centre and spread  116  ( -3.422290,  3.971618,  0.005472 )     1.80217476
  WF centre and spread  117  ( -3.424194,  4.003470, -0.001509 )     1.79845566
  WF centre and spread  118  ( -3.504273,  3.939242,  3.453278 )     2.04517207
  WF centre and spread  119  ( -3.489748,  3.925768,  3.316286 )     1.80685873
  WF centre and spread  120  ( -3.506068,  3.950798,  3.321880 )     1.82084374
  WF centre and spread  121  (  1.743755, -4.972596, -0.122412 )     2.02674174
  WF centre and spread  122  (  1.730950, -4.973841,  0.004582 )     1.79111251
  WF centre and spread  123  (  1.739486, -4.941161,  0.009563 )     1.81860339
  WF centre and spread  124  (  1.657218, -5.001795,  3.449529 )     2.03607670
  WF centre and spread  125  (  1.655194, -5.016358,  3.315173 )     1.82176559
  WF centre and spread  126  (  1.660989, -4.985271,  3.313905 )     1.80462145
  WF centre and spread  127  ( -0.004193, -2.007429, -0.060864 )     2.03867620
  WF centre and spread  128  ( -0.004054, -2.011053,  0.058766 )     1.78333969
  WF centre and spread  129  ( -0.002027, -1.978868,  0.066459 )     1.80142107
  WF centre and spread  130  ( -0.004342, -1.991942,  3.471982 )     2.03885482
  WF centre and spread  131  ( -0.017197, -2.008473,  3.345428 )     1.81337532
  WF centre and spread  132  (  0.000400, -1.979503,  3.343596 )     1.80221797
  WF centre and spread  133  ( -3.508036, -2.020611,  0.009017 )     2.07452767
  WF centre and spread  134  ( -3.486843, -2.036186,  0.123994 )     1.82596095
  WF centre and spread  135  ( -3.495102, -1.990725,  0.127477 )     1.80758398
  WF centre and spread  136  ( -3.398757, -2.131925,  3.540394 )     2.08761339
  WF centre and spread  137  ( -3.363670, -1.954524,  3.426782 )     1.76361475
  WF centre and spread  138  ( -3.407809, -1.813909,  3.536893 )     1.79953909
  WF centre and spread  139  (  0.007063,  9.889695,  0.086827 )     2.05899539
  WF centre and spread  140  (  0.005376,  9.889765,  0.182575 )     1.81437686
  WF centre and spread  141  (  0.004070,  9.923153,  0.186796 )     1.81075511
  WF centre and spread  142  (  0.021391, 10.303466,  3.628242 )     1.88437966
  WF centre and spread  143  ( -0.016260, 10.216918,  3.530151 )     1.77703625
  WF centre and spread  144  ( -0.007634, 10.047804,  3.574682 )     1.98080052
  WF centre and spread  145  (  3.499603, -2.023674, -0.012015 )     2.02581388
  WF centre and spread  146  (  3.486250, -2.028395,  0.110740 )     1.79719461
  WF centre and spread  147  (  3.489794, -1.989722,  0.120586 )     1.79546567
  WF centre and spread  148  (  3.400684, -1.963128,  3.530666 )     2.01992444
  WF centre and spread  149  (  3.416865, -1.984946,  3.392560 )     1.83483375
  WF centre and spread  150  (  3.395683, -1.947257,  3.403306 )     1.80608199
  WF centre and spread  151  (  0.007355, -7.960091, -0.197002 )     2.00135702
  WF centre and spread  152  ( -0.005376, -7.968490, -0.062173 )     1.80583246
  WF centre and spread  153  (  0.001385, -7.934800, -0.068525 )     1.79778282
  WF centre and spread  154  ( -0.006902, -7.957579,  3.441694 )     2.01167495
  WF centre and spread  155  ( -0.001246, -7.963233,  3.303953 )     1.80350935
  WF centre and spread  156  ( -0.003189, -7.931096,  3.297357 )     1.82658650
  WF centre and spread  157  ( -1.733537, -4.973964, -0.105186 )     2.05214374
  WF centre and spread  158  ( -1.746568, -4.978890,  0.010110 )     1.81760046
  WF centre and spread  159  ( -1.743341, -4.941771,  0.020959 )     1.84183689
  WF centre and spread  160  ( -1.806972, -4.931633,  3.465250 )     2.11379872
  WF centre and spread  161  ( -1.503976, -4.982916,  3.430667 )     1.75944338
  WF centre and spread  162  ( -1.669716, -5.086334,  3.363603 )     1.77141499
  WF centre and spread  163  (  1.671768,  6.976532,  0.076204 )     2.06121910
  WF centre and spread  164  (  1.682596,  6.963851,  0.197975 )     1.81752580
  WF centre and spread  165  (  1.691048,  7.013971,  0.189927 )     1.81646145
  WF centre and spread  166  (  2.113848,  6.906545,  3.724200 )     2.00097593
  WF centre and spread  167  (  1.490529,  7.003363,  3.808969 )     2.01764286
  WF centre and spread  168  (  1.912639,  6.584956,  3.630353 )     1.71648988
  WF centre and spread  169  (  3.431026,  3.999028, -0.113815 )     2.04306360
  WF centre and spread  170  (  3.430801,  3.978315,  0.008882 )     1.79969460
  WF centre and spread  171  (  3.425385,  4.006607,  0.011351 )     1.83108213
  WF centre and spread  172  (  3.502621,  3.945457,  3.454660 )     2.04601425
  WF centre and spread  173  (  3.487163,  3.932809,  3.320405 )     1.80679030
  WF centre and spread  174  (  3.503566,  3.969325,  3.330517 )     1.80854506
  WF centre and spread  175  ( -0.006518,  4.043491, -0.006100 )     2.04740838
  WF centre and spread  176  ( -0.003104,  4.021614,  0.123886 )     1.81100680
  WF centre and spread  177  (  0.001211,  4.047468,  0.114955 )     1.80500655
  WF centre and spread  178  (  0.009061,  3.933109,  3.536820 )     2.04204451
  WF centre and spread  179  ( -0.000064,  3.912453,  3.406597 )     1.80827489
  WF centre and spread  180  (  0.004527,  3.983150,  3.391752 )     1.85401033
  WF centre and spread  181  ( -1.675478,  6.982572,  0.077792 )     2.06458255
  WF centre and spread  182  ( -1.689326,  6.967200,  0.181834 )     1.81229676
  WF centre and spread  183  ( -1.685148,  7.010890,  0.186788 )     1.82351903
  WF centre and spread  184  ( -2.040724,  6.806294,  3.639085 )     1.88162231
  WF centre and spread  185  ( -1.823840,  6.904813,  3.561257 )     1.96855540
  WF centre and spread  186  ( -1.935623,  6.811075,  3.529862 )     1.77251115
  Sum of centres and spreads (-17.957724, 43.853505,344.419226 )   338.01135545
 
         Spreads (Ang^2)       Omega I      =   311.733069591
        ================       Omega D      =     0.007185790
                               Omega OD     =    26.271100237
    Final Spread (Ang^2)       Omega Total  =   338.011355618
 ------------------------------------------------------------------------------
 Final centres (translated to home cell for writing xyz file)
  WF centre    1  ( -0.075477,  7.973917,  4.703205 )
  WF centre    2  ( -0.066443,  7.980350,  3.836897 )
  WF centre    3  (  0.004373,  7.946257,  3.985713 )
  WF centre    4  ( -0.045924,  7.845925,  3.864918 )
  WF centre    5  (  0.194312,  8.091835,  4.030839 )
  WF centre    6  ( -3.416212, -3.946584,  4.299170 )
  WF centre    7  ( -3.542105, -3.998657,  3.950788 )
  WF centre    8  ( -3.562980, -3.987307,  3.901071 )
  WF centre    9  ( -3.437083, -4.099162,  3.910789 )
  WF centre   10  ( -3.679600, -3.874926,  3.897409 )
  WF centre   11  (  0.040637, -0.019570,  1.695849 )
  WF centre   12  (  0.002775, -0.002792,  1.695992 )
  WF centre   13  ( -0.002015,  0.003921,  1.700151 )
  WF centre   14  (  0.024731,  0.126851,  1.693417 )
  WF centre   15  ( -0.079559, -0.112367,  1.691854 )
  WF centre   16  (  3.411654, -0.032929,  1.707867 )
  WF centre   17  (  3.470983, -0.001359,  1.701521 )
  WF centre   18  (  3.474732,  0.009025,  1.704575 )
  WF centre   19  (  3.436657,  0.119125,  1.701153 )
  WF centre   20  (  3.582921, -0.092277,  1.706937 )
  WF centre   21  (  6.847022,  0.021571,  1.685684 )
  WF centre   22  (  0.003033,-11.889557,  1.684856 )
  WF centre   23  (  6.890454,  0.025417,  1.712052 )
  WF centre   24  ( -0.017279,-11.767253,  1.678902 )
  WF centre   25  ( -6.816269, -0.069968,  1.682436 )
  WF centre   26  ( -3.412950, -0.032597,  1.713311 )
  WF centre   27  ( -3.472730, -0.003467,  1.706359 )
  WF centre   28  ( -3.467215, -0.030949,  1.738104 )
  WF centre   29  ( -3.439864,  0.109920,  1.707603 )
  WF centre   30  ( -3.576584, -0.104574,  1.713159 )
  WF centre   31  ( -5.151924,  2.982341,  1.610679 )
  WF centre   32  (  1.691301, -8.939485,  1.617269 )
  WF centre   33  (  1.692532, -8.928569,  1.619115 )
  WF centre   34  (  1.708810, -8.795977,  1.618447 )
  WF centre   35  (  1.621213, -9.044166,  1.613665 )
  WF centre   36  ( -0.031679, -6.014251,  1.611626 )
  WF centre   37  ( -0.028751, -5.998503,  1.646170 )
  WF centre   38  ( -0.007752, -5.992673,  1.627878 )
  WF centre   39  ( -0.023159, -5.866645,  1.620039 )
  WF centre   40  (  0.041155, -6.111926,  1.621583 )
  WF centre   41  ( -1.726322, -3.016409,  1.712151 )
  WF centre   42  ( -1.745224, -3.015818,  1.725715 )
  WF centre   43  ( -1.735104, -3.009438,  1.708796 )
  WF centre   44  ( -1.736604, -2.882349,  1.720884 )
  WF centre   45  ( -1.772615, -3.146099,  1.721471 )
  WF centre   46  ( -5.129355, -3.004546,  1.866597 )
  WF centre   47  (  1.707301,  8.936395,  1.866134 )
  WF centre   48  ( -5.151909, -2.987130,  1.893797 )
  WF centre   49  ( -5.102295, -2.895163,  1.879508 )
  WF centre   50  (  1.527931,  8.819404,  1.981009 )
  WF centre   51  (  5.129279, -3.001371,  1.869358 )
  WF centre   52  ( -1.691939,  8.944882,  1.877463 )
  WF centre   53  ( -1.729319,  8.944376,  1.887913 )
  WF centre   54  (  5.146798, -2.873052,  1.854090 )
  WF centre   55  ( -1.622952,  8.842738,  1.877975 )
  WF centre   56  (  1.667917, -3.042571,  1.700264 )
  WF centre   57  (  1.733394, -3.014816,  1.714271 )
  WF centre   58  (  1.733195, -3.003907,  1.701697 )
  WF centre   59  (  1.704787, -2.887906,  1.703324 )
  WF centre   60  (  1.840132, -3.100965,  1.705608 )
  WF centre   61  (  5.143993,  2.978133,  1.612816 )
  WF centre   62  ( -1.690393, -8.939552,  1.615316 )
  WF centre   63  ( -1.691751, -8.927424,  1.621261 )
  WF centre   64  ( -1.713551, -8.797361,  1.616024 )
  WF centre   65  ( -1.605805, -9.034747,  1.617416 )
  WF centre   66  (  3.458218,  5.934573,  1.673513 )
  WF centre   67  (  3.453908,  5.956949,  1.730584 )
  WF centre   68  ( -3.399961, -5.978558,  1.696568 )
  WF centre   69  ( -3.431630, -5.844293,  1.722709 )
  WF centre   70  ( -3.342927, -6.096066,  1.700871 )
  WF centre   71  ( -0.004011,  5.959281,  1.855366 )
  WF centre   72  (  0.017265,  5.969596,  1.904318 )
  WF centre   73  (  0.001775,  6.013969,  1.896517 )
  WF centre   74  ( -0.001417,  6.142488,  1.914776 )
  WF centre   75  (  0.022481,  5.864260,  1.860915 )
  WF centre   76  (  1.730240,  3.001813,  1.706329 )
  WF centre   77  (  1.739505,  3.001323,  1.699225 )
  WF centre   78  (  1.736040,  3.017006,  1.708884 )
  WF centre   79  (  1.730975,  3.153202,  1.701511 )
  WF centre   80  (  1.746833,  2.885252,  1.702452 )
  WF centre   81  ( -1.704895,  2.994173,  1.704110 )
  WF centre   82  ( -1.733422,  3.005230,  1.708235 )
  WF centre   83  ( -1.733548,  3.008275,  1.710989 )
  WF centre   84  ( -1.721366,  3.157331,  1.711359 )
  WF centre   85  ( -1.786993,  2.889265,  1.702542 )
  WF centre   86  ( -3.419631,  5.918319,  1.682466 )
  WF centre   87  ( -3.468208,  5.952852,  1.718662 )
  WF centre   88  (  3.404869, -5.988908,  1.693716 )
  WF centre   89  (  3.429972, -5.857592,  1.678848 )
  WF centre   90  (  3.317639, -6.092280,  1.673985 )
  WF centre   91  (  1.732434,  0.999702, -0.072215 )
  WF centre   92  (  1.733380,  0.984780,  0.062233 )
  WF centre   93  (  1.727423,  1.011690,  0.059471 )
  WF centre   94  (  1.720961,  0.988488,  3.475621 )
  WF centre   95  (  1.726458,  0.983073,  3.341235 )
  WF centre   96  (  1.726105,  1.016996,  3.338344 )
  WF centre   97  (  5.171987,  0.975185, -0.129156 )
  WF centre   98  (  5.167394,  0.960540,  0.005802 )
  WF centre   99  (  5.163470,  0.984085,  0.003892 )
  WF centre  100  (  5.159523,  1.054833,  3.451835 )
  WF centre  101  (  5.164904,  1.047355,  3.319982 )
  WF centre  102  (  5.161409,  1.070352,  3.317599 )
  WF centre  103  ( -5.167453,  0.975350, -0.123784 )
  WF centre  104  ( -5.156524,  0.963354,  0.001642 )
  WF centre  105  ( -5.163449,  0.988981,  0.004268 )
  WF centre  106  ( -5.164625,  1.048362,  3.449728 )
  WF centre  107  ( -5.153924,  1.048553,  3.313128 )
  WF centre  108  ( -5.156190,  1.066667,  3.322078 )
  WF centre  109  ( -1.737888,  1.004676, -0.071477 )
  WF centre  110  ( -1.727007,  0.982017,  0.062711 )
  WF centre  111  ( -1.729285,  1.006793,  0.058410 )
  WF centre  112  ( -1.725638,  0.981046,  3.476122 )
  WF centre  113  ( -1.727541,  0.976663,  3.340929 )
  WF centre  114  ( -1.730057,  1.011437,  3.340337 )
  WF centre  115  ( -3.428786,  3.989300, -0.124525 )
  WF centre  116  ( -3.422290,  3.971618,  0.005472 )
  WF centre  117  ( -3.424194,  4.003470, -0.001509 )
  WF centre  118  ( -3.504273,  3.939242,  3.453278 )
  WF centre  119  ( -3.489748,  3.925768,  3.316286 )
  WF centre  120  ( -3.506068,  3.950798,  3.321880 )
  WF centre  121  (  1.743755, -4.972596, -0.122412 )
  WF centre  122  (  1.730950, -4.973841,  0.004582 )
  WF centre  123  (  1.739486, -4.941161,  0.009563 )
  WF centre  124  (  1.657218, -5.001795,  3.449529 )
  WF centre  125  (  1.655194, -5.016358,  3.315173 )
  WF centre  126  (  1.660989, -4.985271,  3.313905 )
  WF centre  127  ( -0.004193, -2.007429, -0.060864 )
  WF centre  128  ( -0.004054, -2.011053,  0.058766 )
  WF centre  129  ( -0.002027, -1.978868,  0.066459 )
  WF centre  130  ( -0.004342, -1.991942,  3.471982 )
  WF centre  131  ( -0.017197, -2.008473,  3.345428 )
  WF centre  132  (  0.000400, -1.979503,  3.343596 )
  WF centre  133  ( -3.508036, -2.020611,  0.009017 )
  WF centre  134  ( -3.486843, -2.036186,  0.123994 )
  WF centre  135  ( -3.495102, -1.990725,  0.127477 )
  WF centre  136  ( -3.398757, -2.131925,  3.540394 )
  WF centre  137  ( -3.363670, -1.954524,  3.426782 )
  WF centre  138  ( -3.407809, -1.813909,  3.536893 )
  WF centre  139  (  0.007063,  9.889695,  0.086827 )
  WF centre  140  (  0.005376,  9.889765,  0.182575 )
  WF centre  141  (  0.004070,  9.923153,  0.186796 )
  WF centre  142  (  0.021391, 10.303466,  3.628242 )
  WF centre  143  ( -0.016260, 10.216918,  3.530151 )
  WF centre  144  ( -0.007634, 10.047804,  3.574682 )
  WF centre  145  (  3.499603, -2.023674, -0.012015 )
  WF centre  146  (  3.486250, -2.028395,  0.110740 )
  WF centre  147  (  3.489794, -1.989722,  0.120586 )
  WF centre  148  (  3.400684, -1.963128,  3.530666 )
  WF centre  149  (  3.416865, -1.984946,  3.392560 )
  WF centre  150  (  3.395683, -1.947257,  3.403306 )
  WF centre  151  (  0.007355, -7.960091, -0.197002 )
  WF centre  152  ( -0.005376, -7.968490, -0.062173 )
  WF centre  153  (  0.001385, -7.934800, -0.068525 )
  WF centre  154  ( -0.006902, -7.957579,  3.441694 )
  WF centre  155  ( -0.001246, -7.963233,  3.303953 )
  WF centre  156  ( -0.003189, -7.931096,  3.297357 )
  WF centre  157  ( -1.733537, -4.973964, -0.105186 )
  WF centre  158  ( -1.746568, -4.978890,  0.010110 )
  WF centre  159  ( -1.743341, -4.941771,  0.020959 )
  WF centre  160  ( -1.806972, -4.931633,  3.465250 )
  WF centre  161  ( -1.503976, -4.982916,  3.430667 )
  WF centre  162  ( -1.669716, -5.086334,  3.363603 )
  WF centre  163  (  1.671768,  6.976532,  0.076204 )
  WF centre  164  (  1.682596,  6.963851,  0.197975 )
  WF centre  165  (  1.691048,  7.013971,  0.189927 )
  WF centre  166  (  2.113848,  6.906545,  3.724200 )
  WF centre  167  (  1.490529,  7.003363,  3.808969 )
  WF centre  168  (  1.912639,  6.584956,  3.630353 )
  WF centre  169  (  3.431026,  3.999028, -0.113815 )
  WF centre  170  (  3.430801,  3.978315,  0.008882 )
  WF centre  171  (  3.425385,  4.006607,  0.011351 )
  WF centre  172  (  3.502621,  3.945457,  3.454660 )
  WF centre  173  (  3.487163,  3.932809,  3.320405 )
  WF centre  174  (  3.503566,  3.969325,  3.330517 )
  WF centre  175  ( -0.006518,  4.043491, -0.006100 )
  WF centre  176  ( -0.003104,  4.021614,  0.123886 )
  WF centre  177  (  0.001211,  4.047468,  0.114955 )
  WF centre  178  (  0.009061,  3.933109,  3.536820 )
  WF centre  179  ( -0.000064,  3.912453,  3.406597 )
  WF centre  180  (  0.004527,  3.983150,  3.391752 )
  WF centre  181  ( -1.675478,  6.982572,  0.077792 )
  WF centre  182  ( -1.689326,  6.967200,  0.181834 )
  WF centre  183  ( -1.685148,  7.010890,  0.186788 )
  WF centre  184  ( -2.040724,  6.806294,  3.639085 )
  WF centre  185  ( -1.823840,  6.904813,  3.561257 )
  WF centre  186  ( -1.935623,  6.811075,  3.529862 )
 ------------------------------------------------------------------------------
 

 Wannier centres written to file 2cr.down_centres.xyz
  
  Omega Invariant:   1-s^2 =   311.733069591 (Ang^2)
                   -2log s =   351.660170919 (Ang^2)
                    acos^2 =   336.845389542 (Ang^2)
 Time for wannierise           35.944 (sec)

 Writing checkpoint file 2cr.down.chk... done

 *---------------------------------------------------------------------------*
 |                               PLOTTING                                    |
 *---------------------------------------------------------------------------*
 
    1 lattice points in Wigner-Seitz supercell:

      vector   0   0   0   degeneracy:  1
  tot =        1.000
  mp_grid product =            1
 
 Calculating interpolated band-structure
 
 Time to calculate interpolated band structure       5.551 (sec)
 
 Time for plotting              5.737 (sec)
 Total Execution Time         338.842 (sec)

 *===========================================================================*
 |                             TIMING INFORMATION                            |
 *===========================================================================*
 |    Tag                                                Ncalls      Time (s)|
 |---------------------------------------------------------------------------|
 |kmesh: get                                        :         1         0.008|
 |overlap: allocate                                 :         1         0.001|
 |overlap: read                                     :         1         4.095|
 |dis: main                                         :         1       293.026|
 |wann: main                                        :         1        35.944|
 |plot: main                                        :         1         5.737|
 *---------------------------------------------------------------------------*
 
 All done: wannier90 exiting
