 written on 24Jul2023 at 11:04:39 
         186
           1
    1
    0    0    0    1    1    2.112293   -0.000000
    0    0    0    2    1   -0.112037   -0.000000
    0    0    0    3    1   -0.051706   -0.000000
    0    0    0    4    1    0.030521    0.000000
    0    0    0    5    1   -0.070566   -0.000000
    0    0    0    6    1   -0.165755   -0.000000
    0    0    0    7    1    0.211261   -0.000000
    0    0    0    8    1    0.187695    0.000000
    0    0    0    9    1    0.084616   -0.000000
    0    0    0   10    1    0.220740    0.000000
    0    0    0   11    1    0.011014    0.000000
    0    0    0   12    1   -0.003710    0.000000
    0    0    0   13    1    0.006121    0.000000
    0    0    0   14    1    0.000549    0.000000
    0    0    0   15    1   -0.003424    0.000000
    0    0    0   16    1    0.019318    0.000000
    0    0    0   17    1    0.023902    0.000000
    0    0    0   18    1    0.003851    0.000000
    0    0    0   19    1    0.005914    0.000000
    0    0    0   20    1   -0.022610    0.000000
    0    0    0   21    1    0.043468   -0.000000
    0    0    0   22    1   -0.015161    0.000000
    0    0    0   23    1    0.018588    0.000000
    0    0    0   24    1   -0.011793   -0.000000
    0    0    0   25    1    0.040514   -0.000000
    0    0    0   26    1   -0.002407   -0.000000
    0    0    0   27    1   -0.004053   -0.000000
    0    0    0   28    1    0.011533   -0.000000
    0    0    0   29    1    0.012399   -0.000000
    0    0    0   30    1   -0.000596    0.000000
    0    0    0   31    1   -0.005022    0.000000
    0    0    0   32    1   -0.005270    0.000000
    0    0    0   33    1    0.002513   -0.000000
    0    0    0   34    1   -0.009568   -0.000000
    0    0    0   35    1    0.004142    0.000000
    0    0    0   36    1   -0.004574   -0.000000
    0    0    0   37    1    0.015881   -0.000000
    0    0    0   38    1   -0.007648    0.000000
    0    0    0   39    1   -0.001875    0.000000
    0    0    0   40    1    0.001931   -0.000000
    0    0    0   41    1   -0.011801    0.000000
    0    0    0   42    1   -0.056233    0.000000
    0    0    0   43    1   -0.023385    0.000000
    0    0    0   44    1    0.034068   -0.000000
    0    0    0   45    1    0.059858   -0.000000
    0    0    0   46    1    0.009567   -0.000000
    0    0    0   47    1    0.052387    0.000000
    0    0    0   48    1    0.022587    0.000000
    0    0    0   49    1    0.095458    0.000000
    0    0    0   50    1   -0.613460   -0.000000
    0    0    0   51    1    0.101755    0.000000
    0    0    0   52    1   -0.128542    0.000000
    0    0    0   53    1    0.038922   -0.000000
    0    0    0   54    1   -0.042441    0.000000
    0    0    0   55    1    0.292144    0.000000
    0    0    0   56    1    0.012225    0.000000
    0    0    0   57    1    0.010330   -0.000000
    0    0    0   58    1   -0.019167   -0.000000
    0    0    0   59    1    0.013438   -0.000000
    0    0    0   60    1   -0.014910   -0.000000
    0    0    0   61    1   -0.005499   -0.000000
    0    0    0   62    1    0.013830   -0.000000
    0    0    0   63    1   -0.000735    0.000000
    0    0    0   64    1    0.008413   -0.000000
    0    0    0   65    1   -0.005517    0.000000
    0    0    0   66    1    0.061127    0.000000
    0    0    0   67    1   -0.068474   -0.000000
    0    0    0   68    1    0.064701    0.000000
    0    0    0   69    1   -0.015078    0.000000
    0    0    0   70    1   -0.008544    0.000000
    0    0    0   71    1    0.093692   -0.000000
    0    0    0   72    1   -0.085193   -0.000000
    0    0    0   73    1   -0.193921   -0.000000
    0    0    0   74    1    0.391279   -0.000000
    0    0    0   75    1   -0.093955   -0.000000
    0    0    0   76    1    0.016809    0.000000
    0    0    0   77    1    0.003407   -0.000000
    0    0    0   78    1    0.014617    0.000000
    0    0    0   79    1   -0.012515   -0.000000
    0    0    0   80    1   -0.004974    0.000000
    0    0    0   81    1    0.009254    0.000000
    0    0    0   82    1   -0.010617    0.000000
    0    0    0   83    1   -0.000856   -0.000000
    0    0    0   84    1   -0.005076   -0.000000
    0    0    0   85    1    0.004817   -0.000000
    0    0    0   86    1    0.054786   -0.000000
    0    0    0   87    1   -0.046611   -0.000000
    0    0    0   88    1   -0.008950   -0.000000
    0    0    0   89    1    0.022146   -0.000000
    0    0    0   90    1   -0.018437    0.000000
    0    0    0   91    1   -0.021551   -0.000000
    0    0    0   92    1   -0.011935   -0.000000
    0    0    0   93    1   -0.001371    0.000000
    0    0    0   94    1    0.005583    0.000000
    0    0    0   95    1    0.000498    0.000000
    0    0    0   96    1   -0.002835   -0.000000
    0    0    0   97    1    0.007817   -0.000000
    0    0    0   98    1   -0.006515   -0.000000
    0    0    0   99    1    0.011681   -0.000000
    0    0    0  100    1   -0.014596   -0.000000
    0    0    0  101    1   -0.014651   -0.000000
    0    0    0  102    1    0.027351    0.000000
    0    0    0  103    1   -0.012844    0.000000
    0    0    0  104    1    0.006267   -0.000000
    0    0    0  105    1    0.012036   -0.000000
    0    0    0  106    1   -0.006534    0.000000
    0    0    0  107    1    0.003105   -0.000000
    0    0    0  108    1    0.030839   -0.000000
    0    0    0  109    1   -0.008831   -0.000000
    0    0    0  110    1    0.004841    0.000000
    0    0    0  111    1   -0.002574   -0.000000
    0    0    0  112    1    0.006494   -0.000000
    0    0    0  113    1    0.002351    0.000000
    0    0    0  114    1   -0.009749   -0.000000
    0    0    0  115    1   -0.009009   -0.000000
    0    0    0  116    1   -0.010983   -0.000000
    0    0    0  117    1   -0.015061    0.000000
    0    0    0  118    1    0.001987    0.000000
    0    0    0  119    1   -0.011323    0.000000
    0    0    0  120    1   -0.018103    0.000000
    0    0    0  121    1    0.003810   -0.000000
    0    0    0  122    1   -0.016719    0.000000
    0    0    0  123    1   -0.003186   -0.000000
    0    0    0  124    1   -0.003706   -0.000000
    0    0    0  125    1   -0.035774   -0.000000
    0    0    0  126    1   -0.001025   -0.000000
    0    0    0  127    1   -0.031508   -0.000000
    0    0    0  128    1   -0.001612   -0.000000
    0    0    0  129    1    0.016501    0.000000
    0    0    0  130    1    0.004252   -0.000000
    0    0    0  131    1   -0.006454   -0.000000
    0    0    0  132    1    0.000042    0.000000
    0    0    0  133    1    0.065046    0.000000
    0    0    0  134    1   -0.035459   -0.000000
    0    0    0  135    1   -0.021787    0.000000
    0    0    0  136    1   -0.077473   -0.000000
    0    0    0  137    1    0.133453    0.000000
    0    0    0  138    1   -0.022341    0.000000
    0    0    0  139    1   -0.193013    0.000000
    0    0    0  140    1   -0.042205   -0.000000
    0    0    0  141    1    0.059352    0.000000
    0    0    0  142    1   -0.073316   -0.000000
    0    0    0  143    1    0.023440   -0.000000
    0    0    0  144    1    0.487771   -0.000000
    0    0    0  145    1    0.027297   -0.000000
    0    0    0  146    1   -0.001886   -0.000000
    0    0    0  147    1   -0.006464    0.000000
    0    0    0  148    1   -0.113493    0.000000
    0    0    0  149    1   -0.175627    0.000000
    0    0    0  150    1    0.081414   -0.000000
    0    0    0  151    1   -0.008122   -0.000000
    0    0    0  152    1   -0.000379   -0.000000
    0    0    0  153    1   -0.000104    0.000000
    0    0    0  154    1    0.011642   -0.000000
    0    0    0  155    1    0.001513    0.000000
    0    0    0  156    1    0.001878    0.000000
    0    0    0  157    1   -0.009015    0.000000
    0    0    0  158    1    0.011030   -0.000000
    0    0    0  159    1    0.019889   -0.000000
    0    0    0  160    1   -0.005468    0.000000
    0    0    0  161    1   -0.054061   -0.000000
    0    0    0  162    1    0.014239   -0.000000
    0    0    0  163    1   -0.150582   -0.000000
    0    0    0  164    1    0.100537    0.000000
    0    0    0  165    1   -0.034570   -0.000000
    0    0    0  166    1    0.102584   -0.000000
    0    0    0  167    1    0.500764    0.000000
    0    0    0  168    1   -0.044429   -0.000000
    0    0    0  169    1   -0.018559    0.000000
    0    0    0  170    1   -0.004583   -0.000000
    0    0    0  171    1   -0.019395    0.000000
    0    0    0  172    1   -0.018947   -0.000000
    0    0    0  173    1    0.009782   -0.000000
    0    0    0  174    1    0.007849    0.000000
    0    0    0  175    1    0.036510   -0.000000
    0    0    0  176    1   -0.010648   -0.000000
    0    0    0  177    1    0.029225    0.000000
    0    0    0  178    1   -0.054352    0.000000
    0    0    0  179    1    0.005377    0.000000
    0    0    0  180    1   -0.204515   -0.000000
    0    0    0  181    1   -0.183492    0.000000
    0    0    0  182    1   -0.039639    0.000000
    0    0    0  183    1   -0.006372   -0.000000
    0    0    0  184    1   -0.335588    0.000000
    0    0    0  185    1   -0.450544   -0.000000
    0    0    0  186    1   -0.002164    0.000000
    0    0    0    1    2   -0.112037    0.000000
    0    0    0    2    2    2.281250    0.000000
    0    0    0    3    2   -0.052719    0.000000
    0    0    0    4    2   -0.082132   -0.000000
    0    0    0    5    2    0.262986   -0.000000
    0    0    0    6    2   -0.052264    0.000000
    0    0    0    7    2    0.187631   -0.000000
    0    0    0    8    2   -0.146902   -0.000000
    0    0    0    9    2    0.060792   -0.000000
    0    0    0   10    2   -0.186207   -0.000000
    0    0    0   11    2   -0.004843   -0.000000
    0    0    0   12    2    0.001776    0.000000
    0    0    0   13    2   -0.000525   -0.000000
    0    0    0   14    2   -0.000528   -0.000000
    0    0    0   15    2   -0.013056    0.000000
    0    0    0   16    2   -0.003141   -0.000000
    0    0    0   17    2    0.010502   -0.000000
    0    0    0   18    2   -0.023154   -0.000000
    0    0    0   19    2   -0.031803    0.000000
    0    0    0   20    2    0.017116    0.000000
    0    0    0   21    2    0.024167   -0.000000
    0    0    0   22    2   -0.029794   -0.000000
    0    0    0   23    2    0.024200   -0.000000
    0    0    0   24    2    0.009433    0.000000
    0    0    0   25    2    0.008127    0.000000
    0    0    0   26    2    0.004420    0.000000
    0    0    0   27    2    0.001573    0.000000
    0    0    0   28    2   -0.000210    0.000000
    0    0    0   29    2    0.012762   -0.000000
    0    0    0   30    2    0.013922    0.000000
    0    0    0   31    2   -0.009181    0.000000
    0    0    0   32    2   -0.015684    0.000000
    0    0    0   33    2    0.018453    0.000000
    0    0    0   34    2   -0.006347   -0.000000
    0    0    0   35    2    0.002925   -0.000000
    0    0    0   36    2    0.009588   -0.000000
    0    0    0   37    2    0.007487    0.000000
    0    0    0   38    2    0.010606   -0.000000
    0    0    0   39    2    0.004350   -0.000000
    0    0    0   40    2    0.006262    0.000000
    0    0    0   41    2   -0.019547   -0.000000
    0    0    0   42    2    0.008286    0.000000
    0    0    0   43    2   -0.021261    0.000000
    0    0    0   44    2    0.005380    0.000000
    0    0    0   45    2    0.012377    0.000000
    0    0    0   46    2    0.416592    0.000000
    0    0    0   47    2   -0.572127   -0.000000
    0    0    0   48    2   -0.136027   -0.000000
    0    0    0   49    2    0.028362   -0.000000
    0    0    0   50    2    0.335859    0.000000
    0    0    0   51    2   -0.399782   -0.000000
    0    0    0   52    2   -0.712254    0.000000
    0    0    0   53    2    0.368779   -0.000000
    0    0    0   54    2   -0.047501   -0.000000
    0    0    0   55    2    0.418672   -0.000000
    0    0    0   56    2    0.004159    0.000000
    0    0    0   57    2    0.027377    0.000000
    0    0    0   58    2    0.029524    0.000000
    0    0    0   59    2    0.013341   -0.000000
    0    0    0   60    2    0.001630    0.000000
    0    0    0   61    2    0.013027   -0.000000
    0    0    0   62    2   -0.008863    0.000000
    0    0    0   63    2   -0.024230   -0.000000
    0    0    0   64    2   -0.004203   -0.000000
    0    0    0   65    2   -0.001587    0.000000
    0    0    0   66    2   -0.000350   -0.000000
    0    0    0   67    2    0.145644   -0.000000
    0    0    0   68    2   -0.070392    0.000000
    0    0    0   69    2   -0.049291    0.000000
    0    0    0   70    2    0.031730   -0.000000
    0    0    0   71    2    0.095806   -0.000000
    0    0    0   72    2    0.132836    0.000000
    0    0    0   73    2   -0.039178   -0.000000
    0    0    0   74    2    0.285939   -0.000000
    0    0    0   75    2    0.200178    0.000000
    0    0    0   76    2   -0.029614   -0.000000
    0    0    0   77    2   -0.000774    0.000000
    0    0    0   78    2    0.007278    0.000000
    0    0    0   79    2    0.009977    0.000000
    0    0    0   80    2   -0.013888   -0.000000
    0    0    0   81    2    0.022994   -0.000000
    0    0    0   82    2    0.012281   -0.000000
    0    0    0   83    2   -0.012353    0.000000
    0    0    0   84    2   -0.006346    0.000000
    0    0    0   85    2   -0.010735    0.000000
    0    0    0   86    2    0.022613   -0.000000
    0    0    0   87    2    0.100664    0.000000
    0    0    0   88    2    0.089993   -0.000000
    0    0    0   89    2    0.018556    0.000000
    0    0    0   90    2    0.069932    0.000000
    0    0    0   91    2   -0.001607    0.000000
    0    0    0   92    2    0.001881    0.000000
    0    0    0   93    2   -0.011149   -0.000000
    0    0    0   94    2   -0.015632   -0.000000
    0    0    0   95    2   -0.002154    0.000000
    0    0    0   96    2    0.004319    0.000000
    0    0    0   97    2    0.005747    0.000000
    0    0    0   98    2    0.003299   -0.000000
    0    0    0   99    2    0.000871    0.000000
    0    0    0  100    2    0.027893   -0.000000
    0    0    0  101    2    0.020576   -0.000000
    0    0    0  102    2   -0.077502   -0.000000
    0    0    0  103    2    0.000847   -0.000000
    0    0    0  104    2    0.011803    0.000000
    0    0    0  105    2   -0.001092    0.000000
    0    0    0  106    2   -0.029204   -0.000000
    0    0    0  107    2    0.024630   -0.000000
    0    0    0  108    2    0.075177    0.000000
    0    0    0  109    2   -0.006251    0.000000
    0    0    0  110    2    0.001960   -0.000000
    0    0    0  111    2    0.008528   -0.000000
    0    0    0  112    2    0.015077   -0.000000
    0    0    0  113    2   -0.012341   -0.000000
    0    0    0  114    2   -0.011480    0.000000
    0    0    0  115    2   -0.000459    0.000000
    0    0    0  116    2    0.010031   -0.000000
    0    0    0  117    2   -0.010826    0.000000
    0    0    0  118    2   -0.052257    0.000000
    0    0    0  119    2   -0.015240    0.000000
    0    0    0  120    2   -0.003180    0.000000
    0    0    0  121    2    0.009732    0.000000
    0    0    0  122    2    0.011512   -0.000000
    0    0    0  123    2   -0.004070   -0.000000
    0    0    0  124    2   -0.024372   -0.000000
    0    0    0  125    2    0.068224   -0.000000
    0    0    0  126    2    0.015309   -0.000000
    0    0    0  127    2   -0.008758    0.000000
    0    0    0  128    2    0.017945    0.000000
    0    0    0  129    2   -0.000943    0.000000
    0    0    0  130    2    0.004476   -0.000000
    0    0    0  131    2   -0.019391    0.000000
    0    0    0  132    2   -0.001675   -0.000000
    0    0    0  133    2    0.012862   -0.000000
    0    0    0  134    2    0.079460   -0.000000
    0    0    0  135    2    0.033803   -0.000000
    0    0    0  136    2   -0.020529    0.000000
    0    0    0  137    2   -0.085566   -0.000000
    0    0    0  138    2   -0.108325   -0.000000
    0    0    0  139    2   -0.108500    0.000000
    0    0    0  140    2    0.118137    0.000000
    0    0    0  141    2    0.045130   -0.000000
    0    0    0  142    2    0.094861   -0.000000
    0    0    0  143    2    0.872932    0.000000
    0    0    0  144    2   -0.166024    0.000000
    0    0    0  145    2    0.023615   -0.000000
    0    0    0  146    2    0.061035   -0.000000
    0    0    0  147    2   -0.012480    0.000000
    0    0    0  148    2    0.087477    0.000000
    0    0    0  149    2   -0.216874   -0.000000
    0    0    0  150    2    0.120471    0.000000
    0    0    0  151    2   -0.005441   -0.000000
    0    0    0  152    2   -0.001490    0.000000
    0    0    0  153    2   -0.008002   -0.000000
    0    0    0  154    2   -0.000296    0.000000
    0    0    0  155    2   -0.025593    0.000000
    0    0    0  156    2    0.006453   -0.000000
    0    0    0  157    2   -0.003376    0.000000
    0    0    0  158    2    0.011258   -0.000000
    0    0    0  159    2   -0.008324   -0.000000
    0    0    0  160    2   -0.030534   -0.000000
    0    0    0  161    2    0.035664    0.000000
    0    0    0  162    2    0.001480   -0.000000
    0    0    0  163    2   -0.041255    0.000000
    0    0    0  164    2   -0.010994   -0.000000
    0    0    0  165    2    0.090725    0.000000
    0    0    0  166    2   -0.251548   -0.000000
    0    0    0  167    2    0.201265    0.000000
    0    0    0  168    2    0.439640    0.000000
    0    0    0  169    2   -0.018261    0.000000
    0    0    0  170    2    0.011021    0.000000
    0    0    0  171    2   -0.005521    0.000000
    0    0    0  172    2    0.045009    0.000000
    0    0    0  173    2    0.004739    0.000000
    0    0    0  174    2   -0.038226    0.000000
    0    0    0  175    2    0.019810    0.000000
    0    0    0  176    2    0.038601    0.000000
    0    0    0  177    2   -0.013096    0.000000
    0    0    0  178    2    0.018855    0.000000
    0    0    0  179    2    0.048221    0.000000
    0    0    0  180    2   -0.017377    0.000000
    0    0    0  181    2   -0.127641    0.000000
    0    0    0  182    2   -0.128316    0.000000
    0    0    0  183    2   -0.130477    0.000000
    0    0    0  184    2    0.817937   -0.000000
    0    0    0  185    2    0.488747    0.000000
    0    0    0  186    2   -0.609829    0.000000
    0    0    0    1    3   -0.051706    0.000000
    0    0    0    2    3   -0.052719   -0.000000
    0    0    0    3    3    2.377492    0.000000
    0    0    0    4    3   -0.149845   -0.000000
    0    0    0    5    3   -0.051916    0.000000
    0    0    0    6    3    0.198374    0.000000
    0    0    0    7    3   -0.065314    0.000000
    0    0    0    8    3    0.111764   -0.000000
    0    0    0    9    3   -0.051113    0.000000
    0    0    0   10    3   -0.088561   -0.000000
    0    0    0   11    3    0.010426   -0.000000
    0    0    0   12    3    0.003081   -0.000000
    0    0    0   13    3    0.019070    0.000000
    0    0    0   14    3   -0.014269   -0.000000
    0    0    0   15    3   -0.005261    0.000000
    0    0    0   16    3   -0.003357   -0.000000
    0    0    0   17    3    0.021623    0.000000
    0    0    0   18    3    0.028297    0.000000
    0    0    0   19    3    0.005278   -0.000000
    0    0    0   20    3    0.000773   -0.000000
    0    0    0   21    3    0.010408   -0.000000
    0    0    0   22    3   -0.033425   -0.000000
    0    0    0   23    3    0.144737    0.000000
    0    0    0   24    3    0.097229   -0.000000
    0    0    0   25    3    0.046575    0.000000
    0    0    0   26    3   -0.005773   -0.000000
    0    0    0   27    3   -0.004921    0.000000
    0    0    0   28    3    0.029775    0.000000
    0    0    0   29    3    0.012515    0.000000
    0    0    0   30    3    0.000851   -0.000000
    0    0    0   31    3   -0.007130   -0.000000
    0    0    0   32    3   -0.001880   -0.000000
    0    0    0   33    3   -0.003530    0.000000
    0    0    0   34    3   -0.008751   -0.000000
    0    0    0   35    3    0.009002   -0.000000
    0    0    0   36    3   -0.004255    0.000000
    0    0    0   37    3    0.034798    0.000000
    0    0    0   38    3   -0.039112   -0.000000
    0    0    0   39    3   -0.010290   -0.000000
    0    0    0   40    3    0.019057   -0.000000
    0    0    0   41    3    0.022841   -0.000000
    0    0    0   42    3   -0.017431    0.000000
    0    0    0   43    3   -0.011601   -0.000000
    0    0    0   44    3    0.033078    0.000000
    0    0    0   45    3    0.083728    0.000000
    0    0    0   46    3   -0.061485    0.000000
    0    0    0   47    3   -0.158038   -0.000000
    0    0    0   48    3    0.088815   -0.000000
    0    0    0   49    3    0.320938    0.000000
    0    0    0   50    3    0.078479    0.000000
    0    0    0   51    3   -0.119699    0.000000
    0    0    0   52    3    0.282164    0.000000
    0    0    0   53    3   -0.047611    0.000000
    0    0    0   54    3    0.153730    0.000000
    0    0    0   55    3   -0.197688   -0.000000
    0    0    0   56    3    0.024751    0.000000
    0    0    0   57    3    0.019871    0.000000
    0    0    0   58    3   -0.024476    0.000000
    0    0    0   59    3    0.017292    0.000000
    0    0    0   60    3   -0.038176    0.000000
    0    0    0   61    3    0.011107    0.000000
    0    0    0   62    3   -0.009688    0.000000
    0    0    0   63    3   -0.003824   -0.000000
    0    0    0   64    3    0.004870    0.000000
    0    0    0   65    3    0.002436   -0.000000
    0    0    0   66    3   -0.001223   -0.000000
    0    0    0   67    3   -0.151750   -0.000000
    0    0    0   68    3    0.131537    0.000000
    0    0    0   69    3   -0.052850   -0.000000
    0    0    0   70    3   -0.083225    0.000000
    0    0    0   71    3   -0.044749   -0.000000
    0    0    0   72    3   -0.081824    0.000000
    0    0    0   73    3   -0.439960   -0.000000
    0    0    0   74    3    0.317266   -0.000000
    0    0    0   75    3   -0.122240    0.000000
    0    0    0   76    3   -0.021909   -0.000000
    0    0    0   77    3   -0.026184   -0.000000
    0    0    0   78    3    0.002063    0.000000
    0    0    0   79    3    0.018736    0.000000
    0    0    0   80    3   -0.002190   -0.000000
    0    0    0   81    3   -0.019292   -0.000000
    0    0    0   82    3    0.063027   -0.000000
    0    0    0   83    3    0.018521   -0.000000
    0    0    0   84    3    0.025699    0.000000
    0    0    0   85    3    0.018531   -0.000000
    0    0    0   86    3    0.047856   -0.000000
    0    0    0   87    3    0.034990   -0.000000
    0    0    0   88    3    0.072692   -0.000000
    0    0    0   89    3   -0.043808    0.000000
    0    0    0   90    3    0.032666   -0.000000
    0    0    0   91    3    0.004701    0.000000
    0    0    0   92    3   -0.011100   -0.000000
    0    0    0   93    3    0.009694    0.000000
    0    0    0   94    3   -0.005333   -0.000000
    0    0    0   95    3    0.005430    0.000000
    0    0    0   96    3    0.004691    0.000000
    0    0    0   97    3    0.014882    0.000000
    0    0    0   98    3   -0.001463    0.000000
    0    0    0   99    3    0.014559    0.000000
    0    0    0  100    3    0.026835    0.000000
    0    0    0  101    3    0.017497   -0.000000
    0    0    0  102    3    0.000382   -0.000000
    0    0    0  103    3   -0.008264   -0.000000
    0    0    0  104    3    0.010472   -0.000000
    0    0    0  105    3    0.020511    0.000000
    0    0    0  106    3    0.025670    0.000000
    0    0    0  107    3    0.010388   -0.000000
    0    0    0  108    3    0.049858    0.000000
    0    0    0  109    3    0.003899    0.000000
    0    0    0  110    3    0.017505   -0.000000
    0    0    0  111    3    0.005293    0.000000
    0    0    0  112    3   -0.008545    0.000000
    0    0    0  113    3    0.002730    0.000000
    0    0    0  114    3    0.018304   -0.000000
    0    0    0  115    3   -0.017105    0.000000
    0    0    0  116    3    0.011785    0.000000
    0    0    0  117    3    0.005697    0.000000
    0    0    0  118    3   -0.009857   -0.000000
    0    0    0  119    3    0.002454   -0.000000
    0    0    0  120    3    0.001979    0.000000
    0    0    0  121    3    0.015557    0.000000
    0    0    0  122    3    0.007589   -0.000000
    0    0    0  123    3   -0.000716   -0.000000
    0    0    0  124    3   -0.017110    0.000000
    0    0    0  125    3    0.057759   -0.000000
    0    0    0  126    3    0.002559    0.000000
    0    0    0  127    3   -0.025642    0.000000
    0    0    0  128    3   -0.001808    0.000000
    0    0    0  129    3    0.002537    0.000000
    0    0    0  130    3    0.004434   -0.000000
    0    0    0  131    3    0.016195   -0.000000
    0    0    0  132    3    0.004978   -0.000000
    0    0    0  133    3    0.009843    0.000000
    0    0    0  134    3   -0.030075    0.000000
    0    0    0  135    3    0.040579    0.000000
    0    0    0  136    3   -0.011102   -0.000000
    0    0    0  137    3    0.026954   -0.000000
    0    0    0  138    3   -0.102353   -0.000000
    0    0    0  139    3   -0.077772    0.000000
    0    0    0  140    3   -0.022061   -0.000000
    0    0    0  141    3   -0.067487   -0.000000
    0    0    0  142    3   -0.914915    0.000000
    0    0    0  143    3    0.437761    0.000000
    0    0    0  144    3   -0.092181    0.000000
    0    0    0  145    3   -0.027004   -0.000000
    0    0    0  146    3   -0.002819    0.000000
    0    0    0  147    3    0.027203    0.000000
    0    0    0  148    3   -0.093021   -0.000000
    0    0    0  149    3   -0.089155   -0.000000
    0    0    0  150    3    0.045000    0.000000
    0    0    0  151    3    0.002127    0.000000
    0    0    0  152    3    0.013798    0.000000
    0    0    0  153    3   -0.000729   -0.000000
    0    0    0  154    3    0.008459    0.000000
    0    0    0  155    3    0.000500   -0.000000
    0    0    0  156    3   -0.022977    0.000000
    0    0    0  157    3    0.011790   -0.000000
    0    0    0  158    3   -0.020181    0.000000
    0    0    0  159    3    0.001368    0.000000
    0    0    0  160    3   -0.078142   -0.000000
    0    0    0  161    3    0.000649   -0.000000
    0    0    0  162    3    0.033008    0.000000
    0    0    0  163    3    0.073821    0.000000
    0    0    0  164    3    0.105915   -0.000000
    0    0    0  165    3    0.016869    0.000000
    0    0    0  166    3    0.891417   -0.000000
    0    0    0  167    3    0.695761    0.000000
    0    0    0  168    3   -0.245259    0.000000
    0    0    0  169    3   -0.009846   -0.000000
    0    0    0  170    3   -0.010994   -0.000000
    0    0    0  171    3   -0.000634   -0.000000
    0    0    0  172    3   -0.030611    0.000000
    0    0    0  173    3   -0.008902   -0.000000
    0    0    0  174    3    0.019507   -0.000000
    0    0    0  175    3    0.043377    0.000000
    0    0    0  176    3   -0.031616    0.000000
    0    0    0  177    3    0.041455    0.000000
    0    0    0  178    3    0.144881    0.000000
    0    0    0  179    3    0.037091    0.000000
    0    0    0  180    3    0.035907   -0.000000
    0    0    0  181    3   -0.010928   -0.000000
    0    0    0  182    3   -0.071205    0.000000
    0    0    0  183    3    0.047021    0.000000
    0    0    0  184    3    0.119109   -0.000000
    0    0    0  185    3    0.205480    0.000000
    0    0    0  186    3   -0.259105    0.000000
    0    0    0    1    4    0.030521   -0.000000
    0    0    0    2    4   -0.082132    0.000000
    0    0    0    3    4   -0.149845    0.000000
    0    0    0    4    4    1.926647    0.000000
    0    0    0    5    4   -0.172100   -0.000000
    0    0    0    6    4    0.067965   -0.000000
    0    0    0    7    4   -0.113156   -0.000000
    0    0    0    8    4    0.085889   -0.000000
    0    0    0    9    4   -0.111128   -0.000000
    0    0    0   10    4    0.334262    0.000000
    0    0    0   11    4   -0.002528   -0.000000
    0    0    0   12    4   -0.004493   -0.000000
    0    0    0   13    4    0.010199    0.000000
    0    0    0   14    4    0.010292   -0.000000
    0    0    0   15    4    0.001976    0.000000
    0    0    0   16    4    0.027834   -0.000000
    0    0    0   17    4   -0.005638    0.000000
    0    0    0   18    4   -0.008466   -0.000000
    0    0    0   19    4    0.018465    0.000000
    0    0    0   20    4   -0.000095    0.000000
    0    0    0   21    4    0.036705   -0.000000
    0    0    0   22    4   -0.027982   -0.000000
    0    0    0   23    4   -0.062670   -0.000000
    0    0    0   24    4    0.008916    0.000000
    0    0    0   25    4    0.044594   -0.000000
    0    0    0   26    4    0.015980   -0.000000
    0    0    0   27    4    0.029952    0.000000
    0    0    0   28    4   -0.014854    0.000000
    0    0    0   29    4    0.006003   -0.000000
    0    0    0   30    4   -0.018019   -0.000000
    0    0    0   31    4   -0.009627    0.000000
    0    0    0   32    4   -0.024221    0.000000
    0    0    0   33    4    0.002431    0.000000
    0    0    0   34    4   -0.002023   -0.000000
    0    0    0   35    4    0.011674   -0.000000
    0    0    0   36    4    0.017533    0.000000
    0    0    0   37    4   -0.003293   -0.000000
    0    0    0   38    4    0.036591    0.000000
    0    0    0   39    4    0.001558   -0.000000
    0    0    0   40    4   -0.000563   -0.000000
    0    0    0   41    4   -0.028648   -0.000000
    0    0    0   42    4    0.000884   -0.000000
    0    0    0   43    4   -0.005551    0.000000
    0    0    0   44    4   -0.008914    0.000000
    0    0    0   45    4   -0.022356   -0.000000
    0    0    0   46    4   -0.147751   -0.000000
    0    0    0   47    4    0.339684    0.000000
    0    0    0   48    4    0.015777    0.000000
    0    0    0   49    4   -0.069128   -0.000000
    0    0    0   50    4   -0.255907    0.000000
    0    0    0   51    4   -0.298487    0.000000
    0    0    0   52    4   -0.376242    0.000000
    0    0    0   53    4    0.073146   -0.000000
    0    0    0   54    4   -0.175871    0.000000
    0    0    0   55    4   -0.069393    0.000000
    0    0    0   56    4   -0.019640    0.000000
    0    0    0   57    4    0.012798   -0.000000
    0    0    0   58    4   -0.030171    0.000000
    0    0    0   59    4    0.007203   -0.000000
    0    0    0   60    4   -0.005993    0.000000
    0    0    0   61    4   -0.005157   -0.000000
    0    0    0   62    4    0.015981    0.000000
    0    0    0   63    4    0.000538   -0.000000
    0    0    0   64    4   -0.001113    0.000000
    0    0    0   65    4    0.003160    0.000000
    0    0    0   66    4   -0.053046    0.000000
    0    0    0   67    4   -0.013449    0.000000
    0    0    0   68    4    0.046135   -0.000000
    0    0    0   69    4   -0.013466   -0.000000
    0    0    0   70    4   -0.044176    0.000000
    0    0    0   71    4    0.407796   -0.000000
    0    0    0   72    4    0.005561   -0.000000
    0    0    0   73    4    0.806693    0.000000
    0    0    0   74    4   -0.223482   -0.000000
    0    0    0   75    4   -0.031136    0.000000
    0    0    0   76    4   -0.014851   -0.000000
    0    0    0   77    4    0.003782   -0.000000
    0    0    0   78    4   -0.020777    0.000000
    0    0    0   79    4   -0.022932    0.000000
    0    0    0   80    4    0.017573   -0.000000
    0    0    0   81    4   -0.014754   -0.000000
    0    0    0   82    4    0.012696   -0.000000
    0    0    0   83    4   -0.009924   -0.000000
    0    0    0   84    4    0.005817    0.000000
    0    0    0   85    4   -0.020134    0.000000
    0    0    0   86    4    0.029827   -0.000000
    0    0    0   87    4   -0.064752    0.000000
    0    0    0   88    4    0.054421   -0.000000
    0    0    0   89    4   -0.064624    0.000000
    0    0    0   90    4   -0.008386    0.000000
    0    0    0   91    4   -0.002284    0.000000
    0    0    0   92    4    0.004204    0.000000
    0    0    0   93    4   -0.006125    0.000000
    0    0    0   94    4    0.012322   -0.000000
    0    0    0   95    4   -0.009699   -0.000000
    0    0    0   96    4    0.024957   -0.000000
    0    0    0   97    4    0.011666    0.000000
    0    0    0   98    4   -0.006142    0.000000
    0    0    0   99    4   -0.002237   -0.000000
    0    0    0  100    4   -0.028630   -0.000000
    0    0    0  101    4    0.034486   -0.000000
    0    0    0  102    4   -0.046123    0.000000
    0    0    0  103    4   -0.004392   -0.000000
    0    0    0  104    4    0.007362    0.000000
    0    0    0  105    4    0.001581    0.000000
    0    0    0  106    4   -0.033954    0.000000
    0    0    0  107    4   -0.022443   -0.000000
    0    0    0  108    4   -0.003819   -0.000000
    0    0    0  109    4    0.004809    0.000000
    0    0    0  110    4   -0.001620   -0.000000
    0    0    0  111    4   -0.011692    0.000000
    0    0    0  112    4    0.004594    0.000000
    0    0    0  113    4    0.008267    0.000000
    0    0    0  114    4    0.034678    0.000000
    0    0    0  115    4   -0.025271   -0.000000
    0    0    0  116    4    0.004802   -0.000000
    0    0    0  117    4   -0.011347   -0.000000
    0    0    0  118    4   -0.006627    0.000000
    0    0    0  119    4   -0.063500    0.000000
    0    0    0  120    4   -0.103486   -0.000000
    0    0    0  121    4    0.014156    0.000000
    0    0    0  122    4   -0.003643   -0.000000
    0    0    0  123    4   -0.006830   -0.000000
    0    0    0  124    4    0.035174   -0.000000
    0    0    0  125    4    0.090897   -0.000000
    0    0    0  126    4    0.021542   -0.000000
    0    0    0  127    4   -0.002871    0.000000
    0    0    0  128    4   -0.010480    0.000000
    0    0    0  129    4   -0.006502   -0.000000
    0    0    0  130    4   -0.020840   -0.000000
    0    0    0  131    4    0.004543   -0.000000
    0    0    0  132    4    0.010348    0.000000
    0    0    0  133    4    0.000921   -0.000000
    0    0    0  134    4   -0.043496    0.000000
    0    0    0  135    4   -0.026974    0.000000
    0    0    0  136    4    0.067389   -0.000000
    0    0    0  137    4    0.104981   -0.000000
    0    0    0  138    4    0.013846    0.000000
    0    0    0  139    4   -0.106603    0.000000
    0    0    0  140    4   -0.001912   -0.000000
    0    0    0  141    4    0.103517   -0.000000
    0    0    0  142    4    0.134751   -0.000000
    0    0    0  143    4    0.259833   -0.000000
    0    0    0  144    4   -0.790730    0.000000
    0    0    0  145    4   -0.017102   -0.000000
    0    0    0  146    4    0.027615   -0.000000
    0    0    0  147    4   -0.034013    0.000000
    0    0    0  148    4    0.001071    0.000000
    0    0    0  149    4   -0.225344    0.000000
    0    0    0  150    4    0.021412   -0.000000
    0    0    0  151    4   -0.001717   -0.000000
    0    0    0  152    4    0.005291    0.000000
    0    0    0  153    4   -0.011622   -0.000000
    0    0    0  154    4   -0.001905    0.000000
    0    0    0  155    4    0.001899    0.000000
    0    0    0  156    4    0.024833    0.000000
    0    0    0  157    4    0.004607    0.000000
    0    0    0  158    4   -0.013410    0.000000
    0    0    0  159    4   -0.011450   -0.000000
    0    0    0  160    4    0.087994    0.000000
    0    0    0  161    4   -0.008594   -0.000000
    0    0    0  162    4    0.018449   -0.000000
    0    0    0  163    4    0.121300    0.000000
    0    0    0  164    4   -0.097695   -0.000000
    0    0    0  165    4   -0.063061   -0.000000
    0    0    0  166    4   -0.362635   -0.000001
    0    0    0  167    4    0.469207   -0.000000
    0    0    0  168    4   -0.932424   -0.000000
    0    0    0  169    4   -0.002625   -0.000000
    0    0    0  170    4   -0.002607    0.000000
    0    0    0  171    4    0.004617   -0.000000
    0    0    0  172    4   -0.024709    0.000000
    0    0    0  173    4    0.051713    0.000000
    0    0    0  174    4   -0.079904   -0.000000
    0    0    0  175    4    0.034249    0.000000
    0    0    0  176    4   -0.017552    0.000000
    0    0    0  177    4   -0.070482    0.000000
    0    0    0  178    4   -0.051925   -0.000000
    0    0    0  179    4    0.017935   -0.000000
    0    0    0  180    4    0.353077    0.000000
    0    0    0  181    4    0.042538    0.000000
    0    0    0  182    4    0.093704    0.000000
    0    0    0  183    4   -0.021374    0.000000
    0    0    0  184    4   -0.514765    0.000000
    0    0    0  185    4   -0.056683   -0.000000
    0    0    0  186    4   -1.162626    0.000000
    0    0    0    1    5   -0.070566    0.000000
    0    0    0    2    5    0.262986    0.000000
    0    0    0    3    5   -0.051916   -0.000000
    0    0    0    4    5   -0.172100    0.000000
    0    0    0    5    5    2.058803    0.000000
    0    0    0    6    5   -0.056791   -0.000000
    0    0    0    7    5    0.063413   -0.000000
    0    0    0    8    5    0.088518    0.000000
    0    0    0    9    5   -0.299935   -0.000000
    0    0    0   10    5    0.635730    0.000000
    0    0    0   11    5   -0.001107   -0.000000
    0    0    0   12    5    0.006591   -0.000000
    0    0    0   13    5    0.025114    0.000000
    0    0    0   14    5   -0.004690    0.000000
    0    0    0   15    5   -0.009577    0.000000
    0    0    0   16    5   -0.007154    0.000000
    0    0    0   17    5   -0.021144   -0.000000
    0    0    0   18    5   -0.005424    0.000000
    0    0    0   19    5   -0.000747    0.000000
    0    0    0   20    5    0.038394    0.000000
    0    0    0   21    5    0.070228    0.000000
    0    0    0   22    5    0.091505    0.000000
    0    0    0   23    5    0.035754   -0.000000
    0    0    0   24    5    0.034826   -0.000000
    0    0    0   25    5   -0.081807   -0.000000
    0    0    0   26    5    0.003712    0.000000
    0    0    0   27    5   -0.034033   -0.000000
    0    0    0   28    5    0.039225   -0.000000
    0    0    0   29    5    0.005429   -0.000000
    0    0    0   30    5    0.032679    0.000000
    0    0    0   31    5    0.004712   -0.000000
    0    0    0   32    5    0.012801   -0.000000
    0    0    0   33    5   -0.016566   -0.000000
    0    0    0   34    5    0.009276    0.000000
    0    0    0   35    5   -0.007494    0.000000
    0    0    0   36    5    0.008798   -0.000000
    0    0    0   37    5   -0.035762   -0.000000
    0    0    0   38    5    0.004134    0.000000
    0    0    0   39    5    0.002426    0.000000
    0    0    0   40    5    0.019297    0.000000
    0    0    0   41    5    0.010744    0.000000
    0    0    0   42    5   -0.053364   -0.000000
    0    0    0   43    5   -0.031900    0.000000
    0    0    0   44    5    0.053220   -0.000000
    0    0    0   45    5    0.062883   -0.000000
    0    0    0   46    5   -0.343814   -0.000000
    0    0    0   47    5    0.333857    0.000000
    0    0    0   48    5    0.053680    0.000000
    0    0    0   49    5   -0.004505   -0.000000
    0    0    0   50    5   -0.120423   -0.000000
    0    0    0   51    5    0.152462    0.000000
    0    0    0   52    5    0.133116   -0.000000
    0    0    0   53    5   -0.012477   -0.000000
    0    0    0   54    5    0.183486   -0.000000
    0    0    0   55    5    0.178162    0.000000
    0    0    0   56    5   -0.005107   -0.000000
    0    0    0   57    5    0.012208   -0.000000
    0    0    0   58    5    0.001754   -0.000000
    0    0    0   59    5   -0.004203    0.000000
    0    0    0   60    5   -0.029499   -0.000000
    0    0    0   61    5   -0.008425    0.000000
    0    0    0   62    5   -0.000293   -0.000000
    0    0    0   63    5    0.019720    0.000000
    0    0    0   64    5   -0.009192   -0.000000
    0    0    0   65    5   -0.010919   -0.000000
    0    0    0   66    5    0.112620    0.000000
    0    0    0   67    5    0.082810    0.000000
    0    0    0   68    5    0.084272   -0.000000
    0    0    0   69    5   -0.087509    0.000000
    0    0    0   70    5   -0.008129    0.000000
    0    0    0   71    5    0.105064    0.000000
    0    0    0   72    5   -0.059005   -0.000000
    0    0    0   73    5   -0.032276    0.000000
    0    0    0   74    5    0.198260    0.000000
    0    0    0   75    5    0.088598   -0.000000
    0    0    0   76    5   -0.006218    0.000000
    0    0    0   77    5   -0.032639   -0.000000
    0    0    0   78    5   -0.016669   -0.000000
    0    0    0   79    5    0.034238   -0.000000
    0    0    0   80    5    0.002556    0.000000
    0    0    0   81    5   -0.018254    0.000000
    0    0    0   82    5    0.016052    0.000000
    0    0    0   83    5    0.019631    0.000000
    0    0    0   84    5   -0.023590   -0.000000
    0    0    0   85    5    0.009102    0.000000
    0    0    0   86    5   -0.067363   -0.000000
    0    0    0   87    5    0.109447   -0.000000
    0    0    0   88    5    0.028256    0.000000
    0    0    0   89    5   -0.012651   -0.000000
    0    0    0   90    5    0.085961    0.000000
    0    0    0   91    5    0.017339   -0.000000
    0    0    0   92    5   -0.006851   -0.000000
    0    0    0   93    5    0.005657    0.000000
    0    0    0   94    5   -0.000131    0.000000
    0    0    0   95    5    0.014235    0.000000
    0    0    0   96    5   -0.001487   -0.000000
    0    0    0   97    5   -0.024571   -0.000000
    0    0    0   98    5   -0.027616    0.000000
    0    0    0   99    5    0.004005   -0.000000
    0    0    0  100    5   -0.009764   -0.000000
    0    0    0  101    5   -0.012039    0.000000
    0    0    0  102    5    0.096828    0.000000
    0    0    0  103    5    0.025750    0.000000
    0    0    0  104    5    0.003029   -0.000000
    0    0    0  105    5    0.014879   -0.000000
    0    0    0  106    5    0.019820   -0.000000
    0    0    0  107    5   -0.053776    0.000000
    0    0    0  108    5   -0.044514   -0.000000
    0    0    0  109    5   -0.019414   -0.000000
    0    0    0  110    5    0.008047    0.000000
    0    0    0  111    5    0.001115   -0.000000
    0    0    0  112    5   -0.001796    0.000000
    0    0    0  113    5    0.010708   -0.000000
    0    0    0  114    5    0.029727    0.000000
    0    0    0  115    5   -0.005235    0.000000
    0    0    0  116    5    0.004736   -0.000000
    0    0    0  117    5    0.010428   -0.000000
    0    0    0  118    5   -0.004261   -0.000000
    0    0    0  119    5    0.009038   -0.000000
    0    0    0  120    5   -0.019347   -0.000000
    0    0    0  121    5   -0.023955   -0.000000
    0    0    0  122    5    0.010048    0.000000
    0    0    0  123    5    0.016154    0.000000
    0    0    0  124    5   -0.023369   -0.000000
    0    0    0  125    5   -0.018863   -0.000000
    0    0    0  126    5    0.002298   -0.000000
    0    0    0  127    5   -0.026040   -0.000000
    0    0    0  128    5    0.001984   -0.000000
    0    0    0  129    5   -0.002193   -0.000000
    0    0    0  130    5   -0.006074    0.000000
    0    0    0  131    5    0.009390   -0.000000
    0    0    0  132    5    0.018651    0.000000
    0    0    0  133    5   -0.020458    0.000000
    0    0    0  134    5   -0.043925   -0.000000
    0    0    0  135    5   -0.022228   -0.000000
    0    0    0  136    5   -0.175260   -0.000000
    0    0    0  137    5    0.286615    0.000000
    0    0    0  138    5    0.058736    0.000000
    0    0    0  139    5   -0.090654   -0.000000
    0    0    0  140    5   -0.003375   -0.000000
    0    0    0  141    5    0.018266    0.000000
    0    0    0  142    5   -0.517489    0.000000
    0    0    0  143    5   -0.963262   -0.000000
    0    0    0  144    5   -0.186751   -0.000000
    0    0    0  145    5    0.035157    0.000000
    0    0    0  146    5    0.004696   -0.000000
    0    0    0  147    5    0.027875   -0.000000
    0    0    0  148    5    0.025249   -0.000000
    0    0    0  149    5    0.092783    0.000000
    0    0    0  150    5   -0.131500   -0.000000
    0    0    0  151    5   -0.008895    0.000000
    0    0    0  152    5   -0.017390   -0.000000
    0    0    0  153    5   -0.009087    0.000000
    0    0    0  154    5   -0.005536   -0.000000
    0    0    0  155    5    0.017843    0.000000
    0    0    0  156    5    0.003752    0.000000
    0    0    0  157    5    0.036086    0.000000
    0    0    0  158    5   -0.005449   -0.000000
    0    0    0  159    5   -0.024019   -0.000000
    0    0    0  160    5    0.158074    0.000000
    0    0    0  161    5   -0.148133    0.000000
    0    0    0  162    5    0.064149    0.000000
    0    0    0  163    5   -0.122238   -0.000000
    0    0    0  164    5    0.042958    0.000000
    0    0    0  165    5    0.016306   -0.000000
    0    0    0  166    5   -0.577176    0.000000
    0    0    0  167    5   -0.193304    0.000000
    0    0    0  168    5   -0.638674   -0.000000
    0    0    0  169    5   -0.010658    0.000000
    0    0    0  170    5    0.008939    0.000000
    0    0    0  171    5    0.001748    0.000000
    0    0    0  172    5    0.010221   -0.000000
    0    0    0  173    5    0.006143   -0.000000
    0    0    0  174    5    0.013407    0.000000
    0    0    0  175    5    0.044547   -0.000000
    0    0    0  176    5    0.011063   -0.000000
    0    0    0  177    5    0.003186   -0.000000
    0    0    0  178    5    0.059234   -0.000000
    0    0    0  179    5   -0.075958   -0.000000
    0    0    0  180    5    0.087822   -0.000000
    0    0    0  181    5    0.139905    0.000000
    0    0    0  182    5   -0.019179   -0.000000
    0    0    0  183    5   -0.018021   -0.000000
    0    0    0  184    5    0.724968    0.000000
    0    0    0  185    5   -0.740434   -0.000000
    0    0    0  186    5   -0.052424    0.000000
    0    0    0    1    6   -0.165755    0.000000
    0    0    0    2    6   -0.052264   -0.000000
    0    0    0    3    6    0.198374   -0.000000
    0    0    0    4    6    0.067965    0.000000
    0    0    0    5    6   -0.056791    0.000000
    0    0    0    6    6    1.486017   -0.000000
    0    0    0    7    6   -0.155870   -0.000000
    0    0    0    8    6   -0.141387   -0.000000
    0    0    0    9    6   -0.038844   -0.000000
    0    0    0   10    6    0.150468   -0.000000
    0    0    0   11    6    0.006312   -0.000000
    0    0    0   12    6   -0.020985   -0.000000
    0    0    0   13    6    0.004979   -0.000000
    0    0    0   14    6    0.007555   -0.000000
    0    0    0   15    6    0.027165   -0.000000
    0    0    0   16    6    0.010396   -0.000000
    0    0    0   17    6    0.003916   -0.000000
    0    0    0   18    6    0.001850   -0.000000
    0    0    0   19    6    0.001627   -0.000000
    0    0    0   20    6    0.009909   -0.000000
    0    0    0   21    6   -0.005517   -0.000000
    0    0    0   22    6    0.002058   -0.000000
    0    0    0   23    6   -0.010123    0.000000
    0    0    0   24    6    0.009018    0.000000
    0    0    0   25    6   -0.010665   -0.000000
    0    0    0   26    6    0.045028   -0.000000
    0    0    0   27    6    0.024680   -0.000000
    0    0    0   28    6   -0.002244   -0.000000
    0    0    0   29    6    0.006694    0.000000
    0    0    0   30    6   -0.068415    0.000000
    0    0    0   31    6   -0.007977   -0.000000
    0    0    0   32    6    0.014180    0.000000
    0    0    0   33    6    0.001884   -0.000000
    0    0    0   34    6   -0.004383    0.000000
    0    0    0   35    6    0.003209   -0.000000
    0    0    0   36    6    0.064072    0.000000
    0    0    0   37    6    0.002209    0.000000
    0    0    0   38    6    0.018274   -0.000000
    0    0    0   39    6    0.004432    0.000000
    0    0    0   40    6   -0.015587    0.000000
    0    0    0   41    6    0.152436   -0.000000
    0    0    0   42    6    0.242531   -0.000000
    0    0    0   43    6    0.106688    0.000000
    0    0    0   44    6   -0.129875    0.000000
    0    0    0   45    6   -0.335369    0.000000
    0    0    0   46    6    0.450622    0.000000
    0    0    0   47    6   -0.103439    0.000000
    0    0    0   48    6    0.352820   -0.000000
    0    0    0   49    6   -0.239192   -0.000000
    0    0    0   50    6    0.387723   -0.000000
    0    0    0   51    6   -0.014114    0.000000
    0    0    0   52    6    0.032593    0.000000
    0    0    0   53    6   -0.012940    0.000000
    0    0    0   54    6    0.007515    0.000000
    0    0    0   55    6   -0.057322   -0.000000
    0    0    0   56    6   -0.014566   -0.000000
    0    0    0   57    6   -0.009741   -0.000000
    0    0    0   58    6   -0.005874    0.000000
    0    0    0   59    6    0.021527    0.000000
    0    0    0   60    6    0.022373    0.000000
    0    0    0   61    6    0.007883    0.000000
    0    0    0   62    6   -0.013159    0.000000
    0    0    0   63    6    0.007362   -0.000000
    0    0    0   64    6   -0.014257    0.000000
    0    0    0   65    6   -0.000182   -0.000000
    0    0    0   66    6    0.034455   -0.000000
    0    0    0   67    6    0.169372   -0.000000
    0    0    0   68    6   -0.353127   -0.000000
    0    0    0   69    6    0.508880    0.000000
    0    0    0   70    6    0.032409   -0.000000
    0    0    0   71    6   -0.022244   -0.000000
    0    0    0   72    6    0.056776    0.000000
    0    0    0   73    6    0.083325   -0.000000
    0    0    0   74    6   -0.012880    0.000000
    0    0    0   75    6    0.054029    0.000000
    0    0    0   76    6    0.008917   -0.000000
    0    0    0   77    6   -0.001500   -0.000000
    0    0    0   78    6    0.011219    0.000000
    0    0    0   79    6   -0.014659    0.000000
    0    0    0   80    6    0.000653    0.000000
    0    0    0   81    6   -0.001634   -0.000000
    0    0    0   82    6   -0.003740   -0.000000
    0    0    0   83    6    0.006807    0.000000
    0    0    0   84    6    0.001648   -0.000000
    0    0    0   85    6    0.003585    0.000000
    0    0    0   86    6   -0.010585   -0.000000
    0    0    0   87    6    0.009088    0.000000
    0    0    0   88    6   -0.015644   -0.000000
    0    0    0   89    6   -0.006470   -0.000000
    0    0    0   90    6   -0.000667    0.000000
    0    0    0   91    6   -0.017985    0.000000
    0    0    0   92    6    0.007543    0.000000
    0    0    0   93    6   -0.003155   -0.000000
    0    0    0   94    6    0.005780   -0.000000
    0    0    0   95    6    0.002314   -0.000000
    0    0    0   96    6   -0.002231    0.000000
    0    0    0   97    6   -0.014625    0.000000
    0    0    0   98    6   -0.010260    0.000000
    0    0    0   99    6   -0.009825    0.000000
    0    0    0  100    6    0.006951    0.000000
    0    0    0  101    6    0.008080   -0.000000
    0    0    0  102    6    0.000035   -0.000000
    0    0    0  103    6   -0.008053    0.000000
    0    0    0  104    6   -0.008762    0.000000
    0    0    0  105    6    0.012143   -0.000000
    0    0    0  106    6   -0.016049    0.000000
    0    0    0  107    6   -0.007770    0.000000
    0    0    0  108    6    0.029328    0.000000
    0    0    0  109    6    0.010094   -0.000000
    0    0    0  110    6    0.001994   -0.000000
    0    0    0  111    6    0.001832    0.000000
    0    0    0  112    6   -0.023643   -0.000000
    0    0    0  113    6   -0.009080   -0.000000
    0    0    0  114    6    0.006140    0.000000
    0    0    0  115    6   -0.009114    0.000000
    0    0    0  116    6   -0.005024    0.000000
    0    0    0  117    6    0.001099    0.000000
    0    0    0  118    6    0.013742    0.000000
    0    0    0  119    6   -0.000951   -0.000000
    0    0    0  120    6   -0.006241   -0.000000
    0    0    0  121    6    0.000827   -0.000000
    0    0    0  122    6    0.005626   -0.000000
    0    0    0  123    6   -0.002685    0.000000
    0    0    0  124    6   -0.034131   -0.000000
    0    0    0  125    6    0.020221   -0.000000
    0    0    0  126    6   -0.009647    0.000000
    0    0    0  127    6    0.030174   -0.000000
    0    0    0  128    6   -0.002785    0.000000
    0    0    0  129    6   -0.013151    0.000000
    0    0    0  130    6   -0.105002   -0.000000
    0    0    0  131    6    0.180984    0.000000
    0    0    0  132    6    0.106714    0.000000
    0    0    0  133    6   -0.205831   -0.000000
    0    0    0  134    6    0.012116   -0.000000
    0    0    0  135    6    0.078169   -0.000000
    0    0    0  136    6    0.121212   -0.000000
    0    0    0  137    6   -0.273330   -0.000000
    0    0    0  138    6   -0.076780    0.000000
    0    0    0  139    6    0.058791    0.000000
    0    0    0  140    6   -0.001586    0.000000
    0    0    0  141    6    0.028088   -0.000000
    0    0    0  142    6   -0.023668   -0.000000
    0    0    0  143    6   -0.105358    0.000000
    0    0    0  144    6    0.021835    0.000000
    0    0    0  145    6   -0.024080    0.000000
    0    0    0  146    6    0.005136   -0.000000
    0    0    0  147    6    0.009531    0.000000
    0    0    0  148    6    0.012635   -0.000000
    0    0    0  149    6    0.006702    0.000000
    0    0    0  150    6   -0.002839   -0.000000
    0    0    0  151    6   -0.010573   -0.000000
    0    0    0  152    6    0.003406   -0.000000
    0    0    0  153    6   -0.005215   -0.000000
    0    0    0  154    6   -0.019129    0.000000
    0    0    0  155    6    0.026926   -0.000000
    0    0    0  156    6   -0.029946    0.000000
    0    0    0  157    6   -0.167433   -0.000000
    0    0    0  158    6    0.054606    0.000000
    0    0    0  159    6   -0.029754    0.000000
    0    0    0  160    6    0.188449    0.000000
    0    0    0  161    6   -0.139659   -0.000000
    0    0    0  162    6   -0.131554    0.000000
    0    0    0  163    6   -0.145807    0.000000
    0    0    0  164    6   -0.116278   -0.000000
    0    0    0  165    6   -0.045166    0.000000
    0    0    0  166    6    0.138182    0.000000
    0    0    0  167    6   -0.662219   -0.000000
    0    0    0  168    6   -0.464798   -0.000000
    0    0    0  169    6    0.047013    0.000000
    0    0    0  170    6    0.031444   -0.000000
    0    0    0  171    6    0.016266    0.000000
    0    0    0  172    6   -0.025508   -0.000000
    0    0    0  173    6   -0.034929    0.000000
    0    0    0  174    6   -0.119369   -0.000000
    0    0    0  175    6   -0.009182    0.000000
    0    0    0  176    6   -0.003121   -0.000000
    0    0    0  177    6   -0.003746    0.000000
    0    0    0  178    6   -0.034474    0.000000
    0    0    0  179    6   -0.008368   -0.000000
    0    0    0  180    6    0.006849   -0.000000
    0    0    0  181    6    0.015613    0.000000
    0    0    0  182    6    0.001353    0.000000
    0    0    0  183    6   -0.001653   -0.000000
    0    0    0  184    6   -0.016279   -0.000000
    0    0    0  185    6    0.003191   -0.000000
    0    0    0  186    6    0.000605   -0.000000
    0    0    0    1    7    0.211261    0.000000
    0    0    0    2    7    0.187631    0.000000
    0    0    0    3    7   -0.065314   -0.000000
    0    0    0    4    7   -0.113156    0.000000
    0    0    0    5    7    0.063413    0.000000
    0    0    0    6    7   -0.155870    0.000000
    0    0    0    7    7    1.202606    0.000000
    0    0    0    8    7   -0.251958    0.000000
    0    0    0    9    7   -0.338767   -0.000000
    0    0    0   10    7   -0.032966   -0.000000
    0    0    0   11    7    0.004064    0.000000
    0    0    0   12    7   -0.012349   -0.000000
    0    0    0   13    7    0.027838   -0.000000
    0    0    0   14    7    0.018090   -0.000000
    0    0    0   15    7    0.023117    0.000000
    0    0    0   16    7    0.004352    0.000000
    0    0    0   17    7    0.008227   -0.000000
    0    0    0   18    7    0.001759   -0.000000
    0    0    0   19    7    0.007384    0.000000
    0    0    0   20    7   -0.017926    0.000000
    0    0    0   21    7   -0.004310    0.000000
    0    0    0   22    7   -0.008851    0.000000
    0    0    0   23    7   -0.032925    0.000000
    0    0    0   24    7   -0.016407    0.000000
    0    0    0   25    7    0.034788   -0.000000
    0    0    0   26    7   -0.028742   -0.000000
    0    0    0   27    7   -0.011670   -0.000000
    0    0    0   28    7   -0.007934    0.000000
    0    0    0   29    7    0.015375    0.000000
    0    0    0   30    7   -0.024865    0.000000
    0    0    0   31    7   -0.007137   -0.000000
    0    0    0   32    7   -0.004386   -0.000000
    0    0    0   33    7   -0.023299   -0.000000
    0    0    0   34    7   -0.001423   -0.000000
    0    0    0   35    7    0.001382    0.000000
    0    0    0   36    7    0.064040    0.000000
    0    0    0   37    7    0.109618   -0.000000
    0    0    0   38    7   -0.076114    0.000000
    0    0    0   39    7   -0.016384   -0.000000
    0    0    0   40    7    0.106259   -0.000000
    0    0    0   41    7    0.076291    0.000000
    0    0    0   42    7   -0.464446    0.000000
    0    0    0   43    7   -0.240544    0.000000
    0    0    0   44    7    0.163567   -0.000000
    0    0    0   45    7    0.394499   -0.000000
    0    0    0   46    7   -0.307684    0.000000
    0    0    0   47    7   -0.001348    0.000000
    0    0    0   48    7    0.398458   -0.000000
    0    0    0   49    7   -0.144222    0.000000
    0    0    0   50    7    0.231575   -0.000000
    0    0    0   51    7    0.002035    0.000000
    0    0    0   52    7   -0.014463   -0.000000
    0    0    0   53    7    0.030304   -0.000000
    0    0    0   54    7   -0.006106    0.000000
    0    0    0   55    7    0.045272    0.000000
    0    0    0   56    7    0.004043    0.000000
    0    0    0   57    7    0.017752   -0.000000
    0    0    0   58    7   -0.015946    0.000000
    0    0    0   59    7   -0.000228    0.000000
    0    0    0   60    7   -0.009314   -0.000000
    0    0    0   61    7   -0.013446    0.000000
    0    0    0   62    7   -0.007950   -0.000000
    0    0    0   63    7    0.011035    0.000000
    0    0    0   64    7    0.021971   -0.000000
    0    0    0   65    7   -0.005557   -0.000000
    0    0    0   66    7    0.001496    0.000000
    0    0    0   67    7   -0.035663   -0.000000
    0    0    0   68    7    0.169405   -0.000000
    0    0    0   69    7   -0.116898    0.000000
    0    0    0   70    7    0.102724   -0.000000
    0    0    0   71    7   -0.173067   -0.000000
    0    0    0   72    7    0.133983   -0.000000
    0    0    0   73    7    0.058289   -0.000000
    0    0    0   74    7    0.085634    0.000000
    0    0    0   75    7    0.034021   -0.000000
    0    0    0   76    7    0.010369    0.000000
    0    0    0   77    7   -0.004129    0.000000
    0    0    0   78    7    0.017032    0.000000
    0    0    0   79    7   -0.057361   -0.000000
    0    0    0   80    7   -0.002294    0.000000
    0    0    0   81    7    0.000361    0.000000
    0    0    0   82    7    0.008164    0.000000
    0    0    0   83    7    0.023997    0.000000
    0    0    0   84    7    0.002145   -0.000000
    0    0    0   85    7   -0.008387   -0.000000
    0    0    0   86    7    0.006676   -0.000000
    0    0    0   87    7    0.038527    0.000000
    0    0    0   88    7   -0.005073   -0.000000
    0    0    0   89    7   -0.002423    0.000000
    0    0    0   90    7    0.001328    0.000000
    0    0    0   91    7   -0.011234   -0.000000
    0    0    0   92    7   -0.004697   -0.000000
    0    0    0   93    7    0.004845   -0.000000
    0    0    0   94    7    0.011652    0.000000
    0    0    0   95    7    0.002410   -0.000000
    0    0    0   96    7    0.004357    0.000000
    0    0    0   97    7    0.010096   -0.000000
    0    0    0   98    7   -0.005048    0.000000
    0    0    0   99    7   -0.005602    0.000000
    0    0    0  100    7   -0.021445   -0.000000
    0    0    0  101    7    0.013690    0.000000
    0    0    0  102    7    0.009456   -0.000000
    0    0    0  103    7   -0.004340    0.000000
    0    0    0  104    7    0.009502   -0.000000
    0    0    0  105    7    0.013782   -0.000000
    0    0    0  106    7    0.025155    0.000000
    0    0    0  107    7    0.001958   -0.000000
    0    0    0  108    7   -0.006860   -0.000000
    0    0    0  109    7    0.009778   -0.000000
    0    0    0  110    7    0.014511    0.000000
    0    0    0  111    7   -0.010726   -0.000000
    0    0    0  112    7   -0.021460   -0.000000
    0    0    0  113    7   -0.008292    0.000000
    0    0    0  114    7    0.019453   -0.000000
    0    0    0  115    7    0.004247    0.000000
    0    0    0  116    7   -0.008679    0.000000
    0    0    0  117    7    0.002341    0.000000
    0    0    0  118    7   -0.007605   -0.000000
    0    0    0  119    7   -0.023463   -0.000000
    0    0    0  120    7   -0.005076    0.000000
    0    0    0  121    7    0.000040   -0.000000
    0    0    0  122    7    0.013354    0.000000
    0    0    0  123    7    0.017127   -0.000000
    0    0    0  124    7    0.001667   -0.000000
    0    0    0  125    7    0.020845   -0.000000
    0    0    0  126    7   -0.014151    0.000000
    0    0    0  127    7   -0.034886    0.000000
    0    0    0  128    7    0.036880   -0.000000
    0    0    0  129    7    0.004619    0.000000
    0    0    0  130    7   -0.102279    0.000000
    0    0    0  131    7    0.023240    0.000000
    0    0    0  132    7    0.018531    0.000000
    0    0    0  133    7    0.059296   -0.000000
    0    0    0  134    7    0.055727   -0.000000
    0    0    0  135    7   -0.017241   -0.000000
    0    0    0  136    7   -0.012242   -0.000000
    0    0    0  137    7    0.306991   -0.000000
    0    0    0  138    7   -0.124632    0.000000
    0    0    0  139    7   -0.015577    0.000000
    0    0    0  140    7    0.045913   -0.000000
    0    0    0  141    7    0.022323    0.000000
    0    0    0  142    7    0.086715    0.000000
    0    0    0  143    7    0.016291   -0.000000
    0    0    0  144    7   -0.079765    0.000000
    0    0    0  145    7    0.016094    0.000000
    0    0    0  146    7    0.013376   -0.000000
    0    0    0  147    7   -0.006035    0.000000
    0    0    0  148    7   -0.010150    0.000000
    0    0    0  149    7   -0.010911    0.000000
    0    0    0  150    7    0.002774    0.000000
    0    0    0  151    7   -0.007621    0.000000
    0    0    0  152    7    0.010779   -0.000000
    0    0    0  153    7   -0.008904    0.000000
    0    0    0  154    7    0.028122   -0.000000
    0    0    0  155    7    0.025682   -0.000000
    0    0    0  156    7   -0.015619    0.000000
    0    0    0  157    7   -0.011509   -0.000000
    0    0    0  158    7   -0.100531    0.000000
    0    0    0  159    7    0.062978   -0.000000
    0    0    0  160    7   -0.159879    0.000000
    0    0    0  161    7   -0.998709    0.000000
    0    0    0  162    7    0.565800    0.000000
    0    0    0  163    7    0.158101   -0.000000
    0    0    0  164    7   -0.003220    0.000000
    0    0    0  165    7   -0.103435   -0.000000
    0    0    0  166    7    0.082493   -0.000000
    0    0    0  167    7   -0.601860   -0.000000
    0    0    0  168    7   -1.143261    0.000000
    0    0    0  169    7    0.015146    0.000000
    0    0    0  170    7    0.032750   -0.000000
    0    0    0  171    7    0.028214    0.000000
    0    0    0  172    7   -0.030901   -0.000000
    0    0    0  173    7   -0.038741   -0.000000
    0    0    0  174    7    0.109580    0.000000
    0    0    0  175    7    0.026592   -0.000000
    0    0    0  176    7    0.008535   -0.000000
    0    0    0  177    7    0.008386    0.000000
    0    0    0  178    7   -0.045799    0.000000
    0    0    0  179    7    0.014545    0.000000
    0    0    0  180    7    0.023792   -0.000000
    0    0    0  181    7   -0.000409    0.000000
    0    0    0  182    7    0.011131   -0.000000
    0    0    0  183    7   -0.006988   -0.000000
    0    0    0  184    7    0.010147    0.000000
    0    0    0  185    7    0.008232   -0.000000
    0    0    0  186    7    0.023569    0.000000
    0    0    0    1    8    0.187695   -0.000000
    0    0    0    2    8   -0.146902    0.000000
    0    0    0    3    8    0.111764    0.000000
    0    0    0    4    8    0.085889    0.000000
    0    0    0    5    8    0.088518   -0.000000
    0    0    0    6    8   -0.141387    0.000000
    0    0    0    7    8   -0.251958   -0.000000
    0    0    0    8    8    1.027988    0.000000
    0    0    0    9    8    0.265679   -0.000000
    0    0    0   10    8   -0.360309   -0.000000
    0    0    0   11    8   -0.014633    0.000000
    0    0    0   12    8   -0.005348    0.000000
    0    0    0   13    8    0.013290    0.000000
    0    0    0   14    8   -0.012984    0.000000
    0    0    0   15    8   -0.026466    0.000000
    0    0    0   16    8    0.004814    0.000000
    0    0    0   17    8   -0.008699   -0.000000
    0    0    0   18    8    0.013479    0.000000
    0    0    0   19    8   -0.019158   -0.000000
    0    0    0   20    8    0.031162   -0.000000
    0    0    0   21    8   -0.034473    0.000000
    0    0    0   22    8    0.022609    0.000000
    0    0    0   23    8    0.068797   -0.000000
    0    0    0   24    8    0.020508   -0.000000
    0    0    0   25    8   -0.010428    0.000000
    0    0    0   26    8    0.062656   -0.000000
    0    0    0   27    8   -0.011285    0.000000
    0    0    0   28    8    0.199500    0.000000
    0    0    0   29    8    0.125595    0.000000
    0    0    0   30    8   -0.010088    0.000000
    0    0    0   31    8   -0.004703   -0.000000
    0    0    0   32    8   -0.019339   -0.000000
    0    0    0   33    8    0.001555   -0.000000
    0    0    0   34    8   -0.002292   -0.000000
    0    0    0   35    8    0.005286    0.000000
    0    0    0   36    8   -0.042592   -0.000000
    0    0    0   37    8   -0.086479    0.000000
    0    0    0   38    8    0.033000    0.000000
    0    0    0   39    8   -0.028135   -0.000000
    0    0    0   40    8   -0.068609   -0.000000
    0    0    0   41    8    0.033555   -0.000000
    0    0    0   42    8   -0.281318    0.000000
    0    0    0   43    8   -0.164681    0.000000
    0    0    0   44    8    0.222891   -0.000000
    0    0    0   45    8    0.164886   -0.000000
    0    0    0   46    8    0.068980    0.000000
    0    0    0   47    8    0.100929   -0.000000
    0    0    0   48    8   -0.375311    0.000000
    0    0    0   49    8    0.303601   -0.000000
    0    0    0   50    8    0.006082    0.000000
    0    0    0   51    8    0.015461    0.000000
    0    0    0   52    8    0.057814   -0.000000
    0    0    0   53    8   -0.020111   -0.000000
    0    0    0   54    8    0.036943    0.000000
    0    0    0   55    8   -0.144697    0.000000
    0    0    0   56    8   -0.013919   -0.000000
    0    0    0   57    8   -0.014718   -0.000000
    0    0    0   58    8   -0.005417    0.000000
    0    0    0   59    8    0.021156    0.000000
    0    0    0   60    8    0.039809    0.000000
    0    0    0   61    8   -0.008817    0.000000
    0    0    0   62    8   -0.030033    0.000000
    0    0    0   63    8    0.000246    0.000000
    0    0    0   64    8    0.020479   -0.000000
    0    0    0   65    8   -0.017108   -0.000000
    0    0    0   66    8   -0.440994    0.000000
    0    0    0   67    8    0.207131    0.000000
    0    0    0   68    8   -0.604410    0.000000
    0    0    0   69    8    0.095829    0.000000
    0    0    0   70    8   -0.109514    0.000000
    0    0    0   71    8   -0.114703    0.000000
    0    0    0   72    8    0.152831    0.000000
    0    0    0   73    8    0.124783    0.000000
    0    0    0   74    8   -0.181384    0.000000
    0    0    0   75    8    0.122037    0.000000
    0    0    0   76    8   -0.008916    0.000000
    0    0    0   77    8    0.037860    0.000000
    0    0    0   78    8    0.013327   -0.000000
    0    0    0   79    8    0.050991   -0.000000
    0    0    0   80    8   -0.004972    0.000000
    0    0    0   81    8    0.012253    0.000000
    0    0    0   82    8   -0.009289    0.000000
    0    0    0   83    8   -0.011283    0.000000
    0    0    0   84    8    0.024195   -0.000000
    0    0    0   85    8   -0.000608   -0.000000
    0    0    0   86    8   -0.013257    0.000000
    0    0    0   87    8   -0.056883    0.000000
    0    0    0   88    8   -0.054387    0.000000
    0    0    0   89    8   -0.029283    0.000000
    0    0    0   90    8   -0.023571   -0.000000
    0    0    0   91    8    0.017211   -0.000000
    0    0    0   92    8    0.011684   -0.000000
    0    0    0   93    8    0.005819    0.000000
    0    0    0   94    8   -0.020223    0.000000
    0    0    0   95    8   -0.014119    0.000000
    0    0    0   96    8    0.002894   -0.000000
    0    0    0   97    8   -0.000465   -0.000000
    0    0    0   98    8    0.003287   -0.000000
    0    0    0   99    8    0.019176   -0.000000
    0    0    0  100    8   -0.001759   -0.000000
    0    0    0  101    8   -0.002993    0.000000
    0    0    0  102    8    0.005314    0.000000
    0    0    0  103    8    0.004342    0.000000
    0    0    0  104    8   -0.010398   -0.000000
    0    0    0  105    8    0.022548   -0.000000
    0    0    0  106    8    0.033318   -0.000000
    0    0    0  107    8    0.007682   -0.000000
    0    0    0  108    8    0.040680   -0.000000
    0    0    0  109    8    0.012267   -0.000000
    0    0    0  110    8    0.003837    0.000000
    0    0    0  111    8    0.028172   -0.000000
    0    0    0  112    8    0.034317    0.000000
    0    0    0  113    8    0.001502   -0.000000
    0    0    0  114    8    0.009394   -0.000000
    0    0    0  115    8    0.002762   -0.000000
    0    0    0  116    8   -0.001293    0.000000
    0    0    0  117    8   -0.000373    0.000000
    0    0    0  118    8    0.011884   -0.000000
    0    0    0  119    8   -0.001637   -0.000000
    0    0    0  120    8   -0.040871    0.000000
    0    0    0  121    8    0.005445   -0.000000
    0    0    0  122    8   -0.011463   -0.000000
    0    0    0  123    8    0.006024   -0.000000
    0    0    0  124    8   -0.026394    0.000000
    0    0    0  125    8    0.008059    0.000000
    0    0    0  126    8    0.008541   -0.000000
    0    0    0  127    8    0.001615   -0.000000
    0    0    0  128    8    0.020390   -0.000000
    0    0    0  129    8    0.017105   -0.000000
    0    0    0  130    8   -0.042134    0.000000
    0    0    0  131    8   -0.005371   -0.000000
    0    0    0  132    8    0.000565   -0.000000
    0    0    0  133    8   -0.129976   -0.000000
    0    0    0  134    8    0.035549    0.000000
    0    0    0  135    8   -0.111477    0.000000
    0    0    0  136    8   -0.365237    0.000000
    0    0    0  137    8   -0.205376   -0.000000
    0    0    0  138    8   -1.385191   -0.000000
    0    0    0  139    8    0.056256   -0.000000
    0    0    0  140    8    0.036137    0.000000
    0    0    0  141    8   -0.022230    0.000000
    0    0    0  142    8   -0.161901    0.000000
    0    0    0  143    8    0.037389   -0.000000
    0    0    0  144    8    0.074735   -0.000000
    0    0    0  145    8   -0.039241    0.000000
    0    0    0  146    8   -0.007707    0.000000
    0    0    0  147    8    0.001054   -0.000000
    0    0    0  148    8    0.013844   -0.000000
    0    0    0  149    8    0.005448   -0.000000
    0    0    0  150    8   -0.005944   -0.000000
    0    0    0  151    8   -0.002401    0.000000
    0    0    0  152    8   -0.002276   -0.000000
    0    0    0  153    8    0.003871   -0.000000
    0    0    0  154    8    0.003613   -0.000000
    0    0    0  155    8   -0.028584    0.000000
    0    0    0  156    8    0.021207   -0.000000
    0    0    0  157    8    0.071733   -0.000000
    0    0    0  158    8    0.045020   -0.000000
    0    0    0  159    8    0.001813   -0.000000
    0    0    0  160    8    0.060864   -0.000000
    0    0    0  161    8    0.666748    0.000000
    0    0    0  162    8    0.094632   -0.000000
    0    0    0  163    8    0.193629   -0.000000
    0    0    0  164    8   -0.129140    0.000000
    0    0    0  165    8    0.124107   -0.000000
    0    0    0  166    8   -0.140054    0.000000
    0    0    0  167    8   -1.373484   -0.000000
    0    0    0  168    8   -0.182358   -0.000000
    0    0    0  169    8    0.008662   -0.000000
    0    0    0  170    8    0.017956   -0.000000
    0    0    0  171    8    0.079462   -0.000000
    0    0    0  172    8    0.173747   -0.000000
    0    0    0  173    8    0.001331   -0.000000
    0    0    0  174    8   -0.012758   -0.000000
    0    0    0  175    8   -0.054466   -0.000000
    0    0    0  176    8    0.013664   -0.000000
    0    0    0  177    8   -0.008173   -0.000000
    0    0    0  178    8   -0.017973    0.000000
    0    0    0  179    8    0.013891    0.000000
    0    0    0  180    8    0.035414   -0.000000
    0    0    0  181    8    0.030214   -0.000000
    0    0    0  182    8    0.035817   -0.000000
    0    0    0  183    8    0.020120   -0.000000
    0    0    0  184    8   -0.087861   -0.000000
    0    0    0  185    8   -0.085377    0.000000
    0    0    0  186    8   -0.002451   -0.000000
    0    0    0    1    9    0.084616    0.000000
    0    0    0    2    9    0.060792    0.000000
    0    0    0    3    9   -0.051113   -0.000000
    0    0    0    4    9   -0.111128    0.000000
    0    0    0    5    9   -0.299935    0.000000
    0    0    0    6    9   -0.038844    0.000000
    0    0    0    7    9   -0.338767    0.000000
    0    0    0    8    9    0.265679    0.000000
    0    0    0    9    9    0.120441    0.000000
    0    0    0   10    9   -0.148255    0.000000
    0    0    0   11    9    0.023953   -0.000000
    0    0    0   12    9   -0.001867   -0.000000
    0    0    0   13    9   -0.010317   -0.000000
    0    0    0   14    9    0.004761   -0.000000
    0    0    0   15    9   -0.003973   -0.000000
    0    0    0   16    9   -0.004674   -0.000000
    0    0    0   17    9    0.002587    0.000000
    0    0    0   18    9    0.012168   -0.000000
    0    0    0   19    9    0.002895   -0.000000
    0    0    0   20    9   -0.007129    0.000000
    0    0    0   21    9    0.025530   -0.000000
    0    0    0   22    9   -0.011269   -0.000000
    0    0    0   23    9   -0.045104    0.000000
    0    0    0   24    9   -0.001831    0.000000
    0    0    0   25    9    0.016316   -0.000000
    0    0    0   26    9    0.002360   -0.000000
    0    0    0   27    9    0.060384    0.000000
    0    0    0   28    9    0.030209    0.000000
    0    0    0   29    9    0.067618    0.000000
    0    0    0   30    9   -0.052547   -0.000000
    0    0    0   31    9   -0.014672   -0.000000
    0    0    0   32    9    0.012433   -0.000000
    0    0    0   33    9    0.008051   -0.000000
    0    0    0   34    9    0.002825   -0.000000
    0    0    0   35    9    0.003492   -0.000000
    0    0    0   36    9    0.006799    0.000000
    0    0    0   37    9    0.053783   -0.000000
    0    0    0   38    9    0.079819    0.000000
    0    0    0   39    9   -0.109676   -0.000000
    0    0    0   40    9   -0.047722   -0.000000
    0    0    0   41    9   -0.396530   -0.000000
    0    0    0   42    9    0.351815    0.000000
    0    0    0   43    9    0.090931    0.000000
    0    0    0   44    9   -0.168468    0.000000
    0    0    0   45    9   -0.016098    0.000000
    0    0    0   46    9   -0.056343   -0.000000
    0    0    0   47    9   -0.002323   -0.000000
    0    0    0   48    9   -0.123851   -0.000000
    0    0    0   49    9    0.102893    0.000000
    0    0    0   50    9   -0.084983    0.000000
    0    0    0   51    9   -0.018575    0.000000
    0    0    0   52    9   -0.015366    0.000000
    0    0    0   53    9   -0.017271    0.000000
    0    0    0   54    9    0.008391    0.000000
    0    0    0   55    9    0.002433   -0.000000
    0    0    0   56    9   -0.021841   -0.000000
    0    0    0   57    9   -0.008607   -0.000000
    0    0    0   58    9   -0.026218   -0.000000
    0    0    0   59    9    0.020181    0.000000
    0    0    0   60    9   -0.010471    0.000000
    0    0    0   61    9   -0.012329   -0.000000
    0    0    0   62    9   -0.010322   -0.000000
    0    0    0   63    9   -0.013267   -0.000000
    0    0    0   64    9    0.026005    0.000000
    0    0    0   65    9    0.017628   -0.000000
    0    0    0   66    9    0.406241   -0.000000
    0    0    0   67    9   -0.143818   -0.000000
    0    0    0   68    9    0.475717   -0.000000
    0    0    0   69    9   -0.073647   -0.000000
    0    0    0   70    9    0.074187   -0.000000
    0    0    0   71    9   -0.005532   -0.000000
    0    0    0   72    9    0.009550    0.000000
    0    0    0   73    9    0.070400   -0.000000
    0    0    0   74    9   -0.084922   -0.000000
    0    0    0   75    9    0.097072    0.000000
    0    0    0   76    9   -0.025757   -0.000000
    0    0    0   77    9    0.005811    0.000000
    0    0    0   78    9   -0.033452    0.000000
    0    0    0   79    9    0.012814    0.000000
    0    0    0   80    9   -0.010847   -0.000000
    0    0    0   81    9   -0.007345    0.000000
    0    0    0   82    9    0.001139   -0.000000
    0    0    0   83    9   -0.012207   -0.000000
    0    0    0   84    9   -0.008151    0.000000
    0    0    0   85    9   -0.003953   -0.000000
    0    0    0   86    9    0.035943   -0.000000
    0    0    0   87    9    0.023776   -0.000000
    0    0    0   88    9    0.041207   -0.000000
    0    0    0   89    9    0.017043   -0.000000
    0    0    0   90    9    0.000092   -0.000000
    0    0    0   91    9    0.003585   -0.000000
    0    0    0   92    9   -0.006587   -0.000000
    0    0    0   93    9    0.001726    0.000000
    0    0    0   94    9    0.004465   -0.000000
    0    0    0   95    9    0.003780    0.000000
    0    0    0   96    9    0.017862    0.000000
    0    0    0   97    9    0.004710    0.000000
    0    0    0   98    9   -0.007769    0.000000
    0    0    0   99    9    0.003632   -0.000000
    0    0    0  100    9   -0.005495    0.000000
    0    0    0  101    9    0.013219   -0.000000
    0    0    0  102    9    0.007979    0.000000
    0    0    0  103    9   -0.009806    0.000000
    0    0    0  104    9   -0.010080   -0.000000
    0    0    0  105    9    0.003841    0.000000
    0    0    0  106    9   -0.028908   -0.000000
    0    0    0  107    9   -0.002046   -0.000000
    0    0    0  108    9    0.032599    0.000000
    0    0    0  109    9    0.010090    0.000000
    0    0    0  110    9   -0.004716   -0.000000
[...]
    0    0    0  160  184    0.043754   -0.000000
    0    0    0  161  184   -0.069714    0.000000
    0    0    0  162  184    0.003389   -0.000000
    0    0    0  163  184    0.056252   -0.000000
    0    0    0  164  184   -0.119621   -0.000000
    0    0    0  165  184    0.049175   -0.000000
    0    0    0  166  184   -0.284121    0.000000
    0    0    0  167  184   -0.111256    0.000000
    0    0    0  168  184   -0.042026   -0.000000
    0    0    0  169  184   -0.011449    0.000000
    0    0    0  170  184    0.021858    0.000000
    0    0    0  171  184    0.001727    0.000000
    0    0    0  172  184    0.029521   -0.000000
    0    0    0  173  184    0.013300   -0.000000
    0    0    0  174  184   -0.008337   -0.000000
    0    0    0  175  184   -0.033448    0.000000
    0    0    0  176  184   -0.089394   -0.000000
    0    0    0  177  184   -0.010360    0.000000
    0    0    0  178  184   -0.148165   -0.000000
    0    0    0  179  184   -0.042865    0.000000
    0    0    0  180  184    0.307076   -0.000000
    0    0    0  181  184    0.868258   -0.000000
    0    0    0  182  184    0.104662   -0.000000
    0    0    0  183  184   -0.017125   -0.000000
    0    0    0  184  184   -3.073347   -0.000000
    0    0    0  185  184    0.054876    0.000000
    0    0    0  186  184    0.056632   -0.000000
    0    0    0    1  185   -0.450544    0.000000
    0    0    0    2  185    0.488747   -0.000000
    0    0    0    3  185    0.205480   -0.000000
    0    0    0    4  185   -0.056683    0.000000
    0    0    0    5  185   -0.740434    0.000000
    0    0    0    6  185    0.003191    0.000000
    0    0    0    7  185    0.008232    0.000000
    0    0    0    8  185   -0.085377   -0.000000
    0    0    0    9  185    0.105125    0.000000
    0    0    0   10  185   -0.195910   -0.000000
    0    0    0   11  185    0.017931   -0.000000
    0    0    0   12  185   -0.013531   -0.000000
    0    0    0   13  185   -0.016303   -0.000000
    0    0    0   14  185    0.009177    0.000000
    0    0    0   15  185    0.005734    0.000000
    0    0    0   16  185   -0.000960   -0.000000
    0    0    0   17  185    0.028618    0.000000
    0    0    0   18  185   -0.003377    0.000000
    0    0    0   19  185    0.009972    0.000000
    0    0    0   20  185    0.000422    0.000000
    0    0    0   21  185    0.014040   -0.000000
    0    0    0   22  185   -0.013936   -0.000000
    0    0    0   23  185    0.050714    0.000000
    0    0    0   24  185   -0.011382    0.000000
    0    0    0   25  185   -0.006535    0.000000
    0    0    0   26  185   -0.006572   -0.000000
    0    0    0   27  185   -0.010414    0.000000
    0    0    0   28  185   -0.030012    0.000000
    0    0    0   29  185    0.024920   -0.000000
    0    0    0   30  185    0.011898   -0.000000
    0    0    0   31  185    0.000208   -0.000000
    0    0    0   32  185   -0.013924    0.000000
    0    0    0   33  185    0.002300    0.000000
    0    0    0   34  185    0.039058    0.000000
    0    0    0   35  185   -0.045140   -0.000000
    0    0    0   36  185    0.048948    0.000000
    0    0    0   37  185   -0.006452   -0.000000
    0    0    0   38  185   -0.004807    0.000000
    0    0    0   39  185   -0.041328   -0.000000
    0    0    0   40  185    0.007831   -0.000000
    0    0    0   41  185    0.005407   -0.000000
    0    0    0   42  185    0.009076    0.000000
    0    0    0   43  185    0.007032   -0.000000
    0    0    0   44  185   -0.022807   -0.000000
    0    0    0   45  185    0.003050   -0.000000
    0    0    0   46  185    0.057072    0.000000
    0    0    0   47  185   -0.104056   -0.000000
    0    0    0   48  185   -0.023341   -0.000000
    0    0    0   49  185   -0.022060   -0.000000
    0    0    0   50  185    0.054303    0.000000
    0    0    0   51  185   -0.678577   -0.000000
    0    0    0   52  185   -0.322581   -0.000000
    0    0    0   53  185   -0.028400    0.000000
    0    0    0   54  185   -0.159081   -0.000000
    0    0    0   55  185    0.439830    0.000000
    0    0    0   56  185   -0.018275    0.000000
    0    0    0   57  185    0.018982   -0.000000
    0    0    0   58  185    0.038946    0.000000
    0    0    0   59  185    0.031420    0.000000
    0    0    0   60  185   -0.181538   -0.000000
    0    0    0   61  185   -0.009134   -0.000000
    0    0    0   62  185   -0.011005    0.000000
    0    0    0   63  185   -0.007051   -0.000000
    0    0    0   64  185    0.002439    0.000000
    0    0    0   65  185    0.002509   -0.000000
    0    0    0   66  185   -0.026330   -0.000000
    0    0    0   67  185    0.073998    0.000000
    0    0    0   68  185   -0.057010   -0.000000
    0    0    0   69  185   -0.008874   -0.000000
    0    0    0   70  185   -0.016952    0.000000
    0    0    0   71  185   -0.603018   -0.000000
    0    0    0   72  185    0.121975   -0.000000
    0    0    0   73  185   -0.426847    0.000000
    0    0    0   74  185    0.341750    0.000000
    0    0    0   75  185    0.177784    0.000000
    0    0    0   76  185    0.003228   -0.000000
    0    0    0   77  185    0.019020   -0.000000
    0    0    0   78  185    0.016399    0.000000
    0    0    0   79  185   -0.002388    0.000000
    0    0    0   80  185    0.007822    0.000000
    0    0    0   81  185   -0.000910   -0.000000
    0    0    0   82  185    0.032342   -0.000000
    0    0    0   83  185   -0.006254   -0.000000
    0    0    0   84  185   -0.158114   -0.000000
    0    0    0   85  185   -0.007976   -0.000000
    0    0    0   86  185    0.461710   -0.000000
    0    0    0   87  185    1.707275    0.000000
    0    0    0   88  185    0.789877   -0.000000
    0    0    0   89  185    0.239221    0.000000
    0    0    0   90  185    0.329803    0.000000
    0    0    0   91  185   -0.010868    0.000000
    0    0    0   92  185    0.005042   -0.000000
    0    0    0   93  185    0.002405    0.000000
    0    0    0   94  185   -0.007827   -0.000000
    0    0    0   95  185    0.006856   -0.000000
    0    0    0   96  185   -0.013203    0.000000
    0    0    0   97  185    0.005462    0.000000
    0    0    0   98  185    0.005948    0.000000
    0    0    0   99  185    0.007653    0.000000
    0    0    0  100  185    0.016877    0.000000
    0    0    0  101  185   -0.008640   -0.000000
    0    0    0  102  185    0.000289   -0.000000
    0    0    0  103  185    0.004981   -0.000000
    0    0    0  104  185   -0.008409    0.000000
    0    0    0  105  185    0.001816    0.000000
    0    0    0  106  185   -0.013154   -0.000000
    0    0    0  107  185    0.053939   -0.000000
    0    0    0  108  185    0.083840    0.000000
    0    0    0  109  185   -0.019057   -0.000000
    0    0    0  110  185    0.012320   -0.000000
    0    0    0  111  185   -0.011998    0.000000
    0    0    0  112  185    0.020691    0.000000
    0    0    0  113  185   -0.032206    0.000000
    0    0    0  114  185   -0.007012    0.000000
    0    0    0  115  185    0.049831    0.000000
    0    0    0  116  185    0.103521    0.000000
    0    0    0  117  185   -0.007436    0.000000
    0    0    0  118  185   -0.140491   -0.000000
    0    0    0  119  185    0.166353    0.000000
    0    0    0  120  185    0.693657    0.000000
    0    0    0  121  185    0.069512   -0.000000
    0    0    0  122  185    0.048680   -0.000000
    0    0    0  123  185    0.069531    0.000000
    0    0    0  124  185   -0.132504   -0.000000
    0    0    0  125  185    0.806012    0.000000
    0    0    0  126  185   -0.104686   -0.000000
    0    0    0  127  185   -0.016255    0.000000
    0    0    0  128  185   -0.007137    0.000000
    0    0    0  129  185    0.018201    0.000000
    0    0    0  130  185    0.033089    0.000000
    0    0    0  131  185   -0.014138   -0.000000
    0    0    0  132  185   -0.029305    0.000000
    0    0    0  133  185    0.022927   -0.000000
    0    0    0  134  185    0.016344    0.000000
    0    0    0  135  185    0.016141    0.000000
    0    0    0  136  185    0.014590    0.000000
    0    0    0  137  185   -0.045491   -0.000000
    0    0    0  138  185   -0.011469   -0.000000
    0    0    0  139  185   -0.066382    0.000000
    0    0    0  140  185    0.032677    0.000000
    0    0    0  141  185   -0.064015   -0.000000
    0    0    0  142  185    0.145084    0.000000
    0    0    0  143  185    0.244285    0.000000
    0    0    0  144  185    0.184455    0.000000
    0    0    0  145  185    0.034379   -0.000000
    0    0    0  146  185    0.076414    0.000000
    0    0    0  147  185   -0.024289   -0.000000
    0    0    0  148  185   -0.049058   -0.000000
    0    0    0  149  185   -0.036730   -0.000000
    0    0    0  150  185   -0.027271    0.000000
    0    0    0  151  185   -0.009841    0.000000
    0    0    0  152  185   -0.002700    0.000000
    0    0    0  153  185   -0.003568   -0.000000
    0    0    0  154  185    0.000096    0.000000
    0    0    0  155  185   -0.025044   -0.000000
    0    0    0  156  185   -0.007464    0.000000
    0    0    0  157  185   -0.001050   -0.000000
    0    0    0  158  185    0.009576   -0.000000
    0    0    0  159  185   -0.005848   -0.000000
    0    0    0  160  185   -0.086581   -0.000000
    0    0    0  161  185    0.137173    0.000000
    0    0    0  162  185    0.007449    0.000000
    0    0    0  163  185   -0.069996    0.000000
    0    0    0  164  185   -0.039621   -0.000000
    0    0    0  165  185    0.040963    0.000000
    0    0    0  166  185    0.153739   -0.000000
    0    0    0  167  185    0.159979   -0.000000
    0    0    0  168  185    0.140663    0.000000
    0    0    0  169  185   -0.001869   -0.000000
    0    0    0  170  185    0.007520    0.000000
    0    0    0  171  185   -0.016191   -0.000000
    0    0    0  172  185    0.011184   -0.000000
    0    0    0  173  185    0.013175    0.000000
    0    0    0  174  185   -0.056542   -0.000000
    0    0    0  175  185    0.022846    0.000000
    0    0    0  176  185    0.025411    0.000000
    0    0    0  177  185    0.079383    0.000000
    0    0    0  178  185   -0.041845    0.000000
    0    0    0  179  185    0.037917   -0.000000
    0    0    0  180  185   -0.171288    0.000000
    0    0    0  181  185    0.489028    0.000000
    0    0    0  182  185   -0.270223   -0.000000
    0    0    0  183  185   -0.146916   -0.000000
    0    0    0  184  185    0.054876   -0.000000
    0    0    0  185  185   -3.524695   -0.000000
    0    0    0  186  185   -0.113131   -0.000000
    0    0    0    1  186   -0.002164   -0.000000
    0    0    0    2  186   -0.609829   -0.000000
    0    0    0    3  186   -0.259105   -0.000000
    0    0    0    4  186   -1.162626   -0.000000
    0    0    0    5  186   -0.052424   -0.000000
    0    0    0    6  186    0.000605    0.000000
    0    0    0    7  186    0.023569   -0.000000
    0    0    0    8  186   -0.002451    0.000000
    0    0    0    9  186   -0.002713    0.000000
    0    0    0   10  186    0.029857   -0.000000
    0    0    0   11  186   -0.006016    0.000000
    0    0    0   12  186    0.000920   -0.000000
    0    0    0   13  186   -0.018345   -0.000000
    0    0    0   14  186    0.016521    0.000000
    0    0    0   15  186   -0.004157   -0.000000
    0    0    0   16  186    0.000347    0.000000
    0    0    0   17  186    0.000675    0.000000
    0    0    0   18  186    0.029579    0.000000
    0    0    0   19  186   -0.022201   -0.000000
    0    0    0   20  186   -0.034344    0.000000
    0    0    0   21  186   -0.034807    0.000000
    0    0    0   22  186    0.015144   -0.000000
    0    0    0   23  186    0.013464   -0.000000
    0    0    0   24  186   -0.017418   -0.000000
    0    0    0   25  186    0.014368   -0.000000
    0    0    0   26  186   -0.000063    0.000000
    0    0    0   27  186    0.003287   -0.000000
    0    0    0   28  186   -0.010334   -0.000000
    0    0    0   29  186    0.008220    0.000000
    0    0    0   30  186    0.003482    0.000000
    0    0    0   31  186    0.005131   -0.000000
    0    0    0   32  186    0.045798   -0.000000
    0    0    0   33  186    0.019643    0.000000
    0    0    0   34  186   -0.000736    0.000000
    0    0    0   35  186   -0.007425   -0.000000
    0    0    0   36  186   -0.002007    0.000000
    0    0    0   37  186   -0.032101   -0.000000
    0    0    0   38  186   -0.021911    0.000000
    0    0    0   39  186   -0.005745   -0.000000
    0    0    0   40  186   -0.000357    0.000000
    0    0    0   41  186   -0.006711    0.000000
    0    0    0   42  186   -0.002996    0.000000
    0    0    0   43  186   -0.005664   -0.000000
    0    0    0   44  186   -0.001192   -0.000000
    0    0    0   45  186   -0.012182    0.000000
    0    0    0   46  186    0.007274    0.000000
    0    0    0   47  186   -0.023720   -0.000000
    0    0    0   48  186    0.010509   -0.000000
    0    0    0   49  186   -0.036195    0.000000
    0    0    0   50  186   -0.012129   -0.000000
    0    0    0   51  186   -0.240083   -0.000000
    0    0    0   52  186    0.023356    0.000000
    0    0    0   53  186    1.258630   -0.000000
    0    0    0   54  186    0.196740   -0.000000
    0    0    0   55  186   -0.520415    0.000000
    0    0    0   56  186    0.026513   -0.000000
    0    0    0   57  186    0.002699   -0.000000
    0    0    0   58  186    0.013657    0.000000
    0    0    0   59  186   -0.026704    0.000000
    0    0    0   60  186    0.156521   -0.000000
    0    0    0   61  186   -0.001758    0.000000
    0    0    0   62  186    0.000683   -0.000000
    0    0    0   63  186    0.001851   -0.000000
    0    0    0   64  186    0.002175   -0.000000
    0    0    0   65  186    0.000300    0.000000
    0    0    0   66  186    0.028294    0.000000
    0    0    0   67  186   -0.025438    0.000000
    0    0    0   68  186   -0.006017   -0.000000
    0    0    0   69  186    0.005309    0.000000
    0    0    0   70  186    0.006066   -0.000000
    0    0    0   71  186   -0.032164   -0.000000
    0    0    0   72  186   -0.841627    0.000000
    0    0    0   73  186    0.396414   -0.000000
    0    0    0   74  186    0.642642   -0.000000
    0    0    0   75  186    0.116907    0.000000
    0    0    0   76  186    0.009245    0.000000
    0    0    0   77  186   -0.039393    0.000000
    0    0    0   78  186    0.023568    0.000000
    0    0    0   79  186    0.003790   -0.000000
    0    0    0   80  186    0.014404    0.000000
    0    0    0   81  186   -0.013794   -0.000000
    0    0    0   82  186   -0.007974    0.000000
    0    0    0   83  186   -0.028529    0.000000
    0    0    0   84  186   -0.165306   -0.000000
    0    0    0   85  186    0.005759   -0.000000
    0    0    0   86  186   -0.304408    0.000000
    0    0    0   87  186    0.379217    0.000000
    0    0    0   88  186   -0.498466    0.000000
    0    0    0   89  186    0.770755   -0.000000
    0    0    0   90  186   -0.216824    0.000000
    0    0    0   91  186   -0.006547   -0.000000
    0    0    0   92  186    0.001284   -0.000000
    0    0    0   93  186   -0.001360    0.000000
    0    0    0   94  186   -0.001665    0.000000
    0    0    0   95  186   -0.063312   -0.000000
    0    0    0   96  186    0.113766   -0.000000
    0    0    0   97  186    0.008026   -0.000000
    0    0    0   98  186   -0.004067   -0.000000
    0    0    0   99  186    0.000079    0.000000
    0    0    0  100  186    0.002514    0.000000
    0    0    0  101  186   -0.002431   -0.000000
    0    0    0  102  186    0.007025   -0.000000
    0    0    0  103  186   -0.005090    0.000000
    0    0    0  104  186   -0.004113    0.000000
    0    0    0  105  186   -0.002938   -0.000000
    0    0    0  106  186    0.000611   -0.000000
    0    0    0  107  186    0.045279   -0.000000
    0    0    0  108  186    0.077133    0.000000
    0    0    0  109  186   -0.025352   -0.000000
    0    0    0  110  186   -0.003067    0.000000
    0    0    0  111  186   -0.002360   -0.000000
    0    0    0  112  186    0.021115   -0.000000
    0    0    0  113  186    0.007207   -0.000000
    0    0    0  114  186   -0.016260   -0.000000
    0    0    0  115  186    0.082827    0.000000
    0    0    0  116  186   -0.061998    0.000000
    0    0    0  117  186    0.042139   -0.000000
    0    0    0  118  186    0.068755   -0.000000
    0    0    0  119  186    0.306496    0.000000
    0    0    0  120  186    0.536422    0.000000
    0    0    0  121  186   -0.058045    0.000000
    0    0    0  122  186   -0.027771    0.000000
    0    0    0  123  186    0.088240    0.000000
    0    0    0  124  186   -0.045827   -0.000000
    0    0    0  125  186   -0.339484    0.000000
    0    0    0  126  186   -0.098665    0.000000
    0    0    0  127  186    0.027250   -0.000000
    0    0    0  128  186    0.006850   -0.000000
    0    0    0  129  186    0.005272   -0.000000
    0    0    0  130  186   -0.017096    0.000000
    0    0    0  131  186   -0.009250   -0.000000
    0    0    0  132  186   -0.022663   -0.000000
    0    0    0  133  186    0.001790    0.000000
    0    0    0  134  186    0.001026    0.000000
    0    0    0  135  186    0.004779    0.000000
    0    0    0  136  186   -0.000073    0.000000
    0    0    0  137  186   -0.022779    0.000000
    0    0    0  138  186   -0.002154   -0.000000
    0    0    0  139  186    0.000912   -0.000000
    0    0    0  140  186   -0.070991   -0.000000
    0    0    0  141  186    0.040474    0.000000
    0    0    0  142  186    0.238820    0.000000
    0    0    0  143  186    0.103318   -0.000000
    0    0    0  144  186    0.290316   -0.000000
    0    0    0  145  186   -0.052898    0.000000
    0    0    0  146  186    0.028306    0.000000
    0    0    0  147  186    0.020411   -0.000000
    0    0    0  148  186    0.020929   -0.000000
    0    0    0  149  186   -0.499350    0.000000
    0    0    0  150  186    0.606882   -0.000000
    0    0    0  151  186    0.001556   -0.000000
    0    0    0  152  186   -0.005151    0.000000
    0    0    0  153  186    0.013165    0.000000
    0    0    0  154  186   -0.003577    0.000000
    0    0    0  155  186    0.016752   -0.000000
    0    0    0  156  186   -0.031692   -0.000000
    0    0    0  157  186   -0.002887    0.000000
    0    0    0  158  186   -0.002946    0.000000
    0    0    0  159  186    0.005905   -0.000000
    0    0    0  160  186    0.030092   -0.000000
    0    0    0  161  186   -0.058372    0.000000
    0    0    0  162  186   -0.010738    0.000000
    0    0    0  163  186    0.001319   -0.000000
    0    0    0  164  186    0.006052    0.000000
    0    0    0  165  186    0.075761    0.000000
    0    0    0  166  186   -0.128911    0.000000
    0    0    0  167  186   -0.212555    0.000000
    0    0    0  168  186    0.021930    0.000000
    0    0    0  169  186   -0.001772    0.000000
    0    0    0  170  186   -0.001790    0.000000
    0    0    0  171  186    0.011701   -0.000000
    0    0    0  172  186   -0.003548   -0.000000
    0    0    0  173  186   -0.021250   -0.000000
    0    0    0  174  186    0.012852    0.000000
    0    0    0  175  186    0.065458   -0.000000
    0    0    0  176  186    0.006287   -0.000000
    0    0    0  177  186   -0.000498    0.000000
    0    0    0  178  186   -0.020417   -0.000000
    0    0    0  179  186   -0.365083    0.000000
    0    0    0  180  186    0.637677   -0.000000
    0    0    0  181  186   -0.090848    0.000000
    0    0    0  182  186    0.087331   -0.000000
    0    0    0  183  186   -0.242023   -0.000000
    0    0    0  184  186    0.056632    0.000000
    0    0    0  185  186   -0.113131    0.000000
    0    0    0  186  186   -2.764175   -0.000000
