 
             +---------------------------------------------------+
             |                                                   |
             |                   WANNIER90                       |
             |                                                   |
             +---------------------------------------------------+
             |                                                   |
             |        Welcome to the Maximally-Localized         |
             |        Generalized Wannier Functions code         |
             |            http://www.wannier.org                 |
             |                                                   |
             |                                                   |
             |  Wannier90 Developer Group:                       |
             |    Giovanni Pizzi    (EPFL)                       |
             |    Valerio Vitale    (Cambridge)                  |
             |    David Vanderbilt  (Rutgers University)         |
             |    Nicola Marzari    (EPFL)                       |
             |    Ivo Souza         (Universidad del Pais Vasco) |
             |    Arash A. Mostofi  (Imperial College London)    |
             |    Jonathan R. Yates (University of Oxford)       |
             |                                                   |
             |  For the full list of Wannier90 3.x authors,      |
             |  please check the code documentation and the      |
             |  README on the GitHub page of the code            |
             |                                                   |
             |                                                   |
             |  Please cite                                      |
             |                                                   |
             |  [ref] "Wannier90 as a community code:            |
             |        new features and applications",            |
             |        G. Pizzi et al., J. Phys. Cond. Matt. 32,  |
             |        165902 (2020).                             |
             |        http://doi.org/10.1088/1361-648X/ab51ff    |
             |                                                   |
             |  in any publications arising from the use of      |
             |  this code. For the method please cite            |
             |                                                   |
             |  [ref] "Maximally Localized Generalised Wannier   |
             |         Functions for Composite Energy Bands"     |
             |         N. Marzari and D. Vanderbilt              |
             |         Phys. Rev. B 56 12847 (1997)              |
             |                                                   |
             |  [ref] "Maximally Localized Wannier Functions     |
             |         for Entangled Energy Bands"               |
             |         I. Souza, N. Marzari and D. Vanderbilt    |
             |         Phys. Rev. B 65 035109 (2001)             |
             |                                                   |
             |                                                   |
             | Copyright (c) 1996-2020                           |
             |        The Wannier90 Developer Group and          |
             |        individual contributors                    |
             |                                                   |
             |      Release: 3.1.0        5th March    2020      |
             |                                                   |
             | This program is free software; you can            |
             | redistribute it and/or modify it under the terms  |
             | of the GNU General Public License as published by |
             | the Free Software Foundation; either version 2 of |
             | the License, or (at your option) any later version|
             |                                                   |
             | This program is distributed in the hope that it   |
             | will be useful, but WITHOUT ANY WARRANTY; without |
             | even the implied warranty of MERCHANTABILITY or   |
             | FITNESS FOR A PARTICULAR PURPOSE. See the GNU     |
             | General Public License for more details.          |
             |                                                   |
             | You should have received a copy of the GNU General|
             | Public License along with this program; if not,   |
             | write to the Free Software Foundation, Inc.,      |
             | 675 Mass Ave, Cambridge, MA 02139, USA.           |
             |                                                   |
             +---------------------------------------------------+
             |    Execution started on 11Jul2023 at 20:59:39     |
             +---------------------------------------------------+
 
 ******************************************************************************
 * -> Using CODATA 2006 constant values                                       *
 *    (http://physics.nist.gov/cuu/Constants/index.html)                      *
 * -> Using Bohr value from CODATA                                            *
 ******************************************************************************
 

 Running in parallel on  80 CPUs

 
                                    ------
                                    SYSTEM
                                    ------
 
                              Lattice Vectors (Ang)
                    a_1    13.784171   0.000000   0.000000
                    a_2    -6.892085  11.937442   0.000000
                    a_3     0.000000   0.000000  23.631430
 
                   Unit Cell Volume:    3888.49848  (Ang^3)
 
                        Reciprocal-Space Vectors (Ang^-1)
                    b_1     0.455826   0.263171   0.000000
                    b_2     0.000000   0.526343   0.000000
                    b_3     0.000000   0.000000   0.265883
  
 *----------------------------------------------------------------------------*
 |   Site       Fractional Coordinate          Cartesian Coordinate (Ang)     |
 +----------------------------------------------------------------------------+
 | Cr   1   0.33333   0.66667   0.24058   |   -0.00000   7.95829   5.68532    |
 | Nb   1   0.00000   0.00000   0.07170   |    0.00000   0.00000   1.69430    |
 | Nb   2   0.25189   0.00024   0.07201   |    3.47040   0.00287   1.70173    |
 | Nb   3   0.50228   0.00457   0.07084   |    6.89209   0.05454   1.67414    |
 | Nb   4   0.74835   0.00024   0.07201   |   10.31377   0.00287   1.70173    |
 | Nb   5   0.74850   0.25150   0.06828   |    8.58404   3.00230   1.61367    |
 | Nb   6   0.74850   0.49699   0.06828   |    6.89209   5.93284   1.61367    |
 | Nb   7   0.74835   0.74811   0.07201   |    5.15937   8.93055   1.70173    |
 | Nb   8   0.50032   0.75016   0.07859   |    1.72635   8.95500   1.85709    |
 | Nb   9   0.24984   0.75016   0.07859   |   -1.72635   8.95500   1.85709    |
 | Nb  10  -0.00024   0.74811   0.07201   |   -5.15937   8.93055   1.70173    |
 | Nb  11   0.50301   0.25150   0.06828   |    5.20014   3.00230   1.61367    |
 | Nb  12   0.50228   0.49772   0.07084   |    3.49327   5.94145   1.67414    |
 | Nb  13   0.24984   0.49968   0.07859   |   -0.00000   5.96488   1.85709    |
 | Nb  14   0.25189   0.25165   0.07201   |    1.73769   3.00402   1.70173    |
 | Nb  15  -0.00024   0.25165   0.07201   |   -1.73769   3.00402   1.70173    |
 | Nb  16  -0.00457   0.49772   0.07084   |   -3.49327   5.94145   1.67414    |
 | Se   1   0.16721   0.08361   0.00063   |    1.72866   0.99804   0.01486    |
 | Se   2   0.16690   0.08345   0.14290   |    1.72538   0.99615   3.37693    |
 | Se   3   0.41544   0.08143  -0.00156   |    5.16530   0.97207  -0.03681    |
 | Se   4   0.41911   0.08928   0.14188   |    5.16174   1.06572   3.35289    |
 | Se   5   0.66599   0.08143  -0.00156   |    8.61887   0.97207  -0.03681    |
 | Se   6   0.67017   0.08928   0.14188   |    8.62243   1.06572   3.35289    |
 | Se   7   0.91639   0.08361   0.00063   |   12.05551   0.99804   0.01486    |
 | Se   8   0.91655   0.08345   0.14290   |   12.05879   0.99615   3.37693    |
 | Se   9   0.91857   0.33401  -0.00156   |   10.35968   3.98724  -0.03681    |
 | Se  10   0.91072   0.32983   0.14188   |   10.28036   3.93734   3.35289    |
 | Se  11   0.91857   0.58456  -0.00156   |    8.63289   6.97813  -0.03681    |
 | Se  12   0.91072   0.58089   0.14188   |    8.55002   6.93438   3.35289    |
 | Se  13   0.91639   0.83279   0.00063   |    6.89209   9.94136   0.01486    |
 | Se  14   0.91655   0.83310   0.14290   |    6.89209   9.94514   3.37693    |
 | Se  15   0.66220   0.83110   0.00298   |    3.39989   9.92122   0.07043    |
 | Se  16   0.67172   0.83586   0.14547   |    3.49824   9.97800   3.43758    |
 | Se  17   0.41489   0.82979   0.00560   |    0.00000   9.90552   0.13226    |
 | Se  18   0.42825   0.85651   0.14992   |    0.00000  10.22450   3.54287    |
 | Se  19   0.16890   0.83110   0.00298   |   -3.39989   9.92122   0.07043    |
 | Se  20   0.16414   0.83586   0.14547   |   -3.49824   9.97800   3.43758    |
 | Se  21   0.66667   0.33333  -0.00432   |    6.89209   3.97915  -0.10210    |
 | Se  22   0.66667   0.33333   0.14105   |    6.89209   3.97915   3.33317    |
 | Se  23   0.66599   0.58456  -0.00156   |    5.15128   6.97813  -0.03681    |
 | Se  24   0.67017   0.58089   0.14188   |    5.23415   6.93438   3.35289    |
 | Se  25   0.41489   0.58511   0.00560   |    1.68635   6.98468   0.13226    |
 | Se  26   0.42825   0.57175   0.14992   |    1.96259   6.82519   3.54287    |
 | Se  27   0.41544   0.33401  -0.00156   |    3.42449   3.98724  -0.03681    |
 | Se  28   0.41911   0.32983   0.14188   |    3.50381   3.93734   3.35289    |
 | Se  29   0.16890   0.33780   0.00298   |    0.00000   4.03244   0.07043    |
 | Se  30   0.16414   0.32828   0.14547   |    0.00000   3.91888   3.43758    |
 | Se  31   0.17021   0.58511   0.00560   |   -1.68635   6.98468   0.13226    |
 | Se  32   0.14349   0.57175   0.14992   |   -1.96259   6.82519   3.54287    |
 *----------------------------------------------------------------------------*
                                -----------
                                PROJECTIONS
                                -----------
  
 +----------------------------------------------------------------------------+
 |     Frac. Coord.   l mr  r        z-axis               x-axis          Z/a |
 +----------------------------------------------------------------------------+
 |  0.33  0.67  0.24  2  1  1  0.000  0.000  1.000  1.000  0.000  0.000   1.0 |
 |  0.33  0.67  0.24  2  2  1  0.000  0.000  1.000  1.000  0.000  0.000   1.0 |
 |  0.33  0.67  0.24  2  3  1  0.000  0.000  1.000  1.000  0.000  0.000   1.0 |
 |  0.33  0.67  0.24  2  4  1  0.000  0.000  1.000  1.000  0.000  0.000   1.0 |
 |  0.33  0.67  0.24  2  5  1  0.000  0.000  1.000  1.000  0.000  0.000   1.0 |
 |  0.00  0.00  0.07  2  1  1  0.000  0.000  1.000  1.000  0.000  0.000   1.0 |
 |  0.00  0.00  0.07  2  2  1  0.000  0.000  1.000  1.000  0.000  0.000   1.0 |
 |  0.00  0.00  0.07  2  3  1  0.000  0.000  1.000  1.000  0.000  0.000   1.0 |
 |  0.00  0.00  0.07  2  4  1  0.000  0.000  1.000  1.000  0.000  0.000   1.0 |
 |  0.00  0.00  0.07  2  5  1  0.000  0.000  1.000  1.000  0.000  0.000   1.0 |
 |  0.25  0.00  0.07  2  1  1  0.000  0.000  1.000  1.000  0.000  0.000   1.0 |
 |  0.25  0.00  0.07  2  2  1  0.000  0.000  1.000  1.000  0.000  0.000   1.0 |
 |  0.25  0.00  0.07  2  3  1  0.000  0.000  1.000  1.000  0.000  0.000   1.0 |
 |  0.25  0.00  0.07  2  4  1  0.000  0.000  1.000  1.000  0.000  0.000   1.0 |
 |  0.25  0.00  0.07  2  5  1  0.000  0.000  1.000  1.000  0.000  0.000   1.0 |
 |  0.50  0.00  0.07  2  1  1  0.000  0.000  1.000  1.000  0.000  0.000   1.0 |
 |  0.50  0.00  0.07  2  2  1  0.000  0.000  1.000  1.000  0.000  0.000   1.0 |
 |  0.50  0.00  0.07  2  3  1  0.000  0.000  1.000  1.000  0.000  0.000   1.0 |
 |  0.50  0.00  0.07  2  4  1  0.000  0.000  1.000  1.000  0.000  0.000   1.0 |
 |  0.50  0.00  0.07  2  5  1  0.000  0.000  1.000  1.000  0.000  0.000   1.0 |
 |  0.75  0.00  0.07  2  1  1  0.000  0.000  1.000  1.000  0.000  0.000   1.0 |
 |  0.75  0.00  0.07  2  2  1  0.000  0.000  1.000  1.000  0.000  0.000   1.0 |
 |  0.75  0.00  0.07  2  3  1  0.000  0.000  1.000  1.000  0.000  0.000   1.0 |
 |  0.75  0.00  0.07  2  4  1  0.000  0.000  1.000  1.000  0.000  0.000   1.0 |
 |  0.75  0.00  0.07  2  5  1  0.000  0.000  1.000  1.000  0.000  0.000   1.0 |
 |  0.75  0.25  0.07  2  1  1  0.000  0.000  1.000  1.000  0.000  0.000   1.0 |
 |  0.75  0.25  0.07  2  2  1  0.000  0.000  1.000  1.000  0.000  0.000   1.0 |
 |  0.75  0.25  0.07  2  3  1  0.000  0.000  1.000  1.000  0.000  0.000   1.0 |
 |  0.75  0.25  0.07  2  4  1  0.000  0.000  1.000  1.000  0.000  0.000   1.0 |
 |  0.75  0.25  0.07  2  5  1  0.000  0.000  1.000  1.000  0.000  0.000   1.0 |
 |  0.75  0.50  0.07  2  1  1  0.000  0.000  1.000  1.000  0.000  0.000   1.0 |
 |  0.75  0.50  0.07  2  2  1  0.000  0.000  1.000  1.000  0.000  0.000   1.0 |
 |  0.75  0.50  0.07  2  3  1  0.000  0.000  1.000  1.000  0.000  0.000   1.0 |
 |  0.75  0.50  0.07  2  4  1  0.000  0.000  1.000  1.000  0.000  0.000   1.0 |
 |  0.75  0.50  0.07  2  5  1  0.000  0.000  1.000  1.000  0.000  0.000   1.0 |
 |  0.75  0.75  0.07  2  1  1  0.000  0.000  1.000  1.000  0.000  0.000   1.0 |
 |  0.75  0.75  0.07  2  2  1  0.000  0.000  1.000  1.000  0.000  0.000   1.0 |
 |  0.75  0.75  0.07  2  3  1  0.000  0.000  1.000  1.000  0.000  0.000   1.0 |
 |  0.75  0.75  0.07  2  4  1  0.000  0.000  1.000  1.000  0.000  0.000   1.0 |
 |  0.75  0.75  0.07  2  5  1  0.000  0.000  1.000  1.000  0.000  0.000   1.0 |
 |  0.50  0.75  0.08  2  1  1  0.000  0.000  1.000  1.000  0.000  0.000   1.0 |
 |  0.50  0.75  0.08  2  2  1  0.000  0.000  1.000  1.000  0.000  0.000   1.0 |
 |  0.50  0.75  0.08  2  3  1  0.000  0.000  1.000  1.000  0.000  0.000   1.0 |
 |  0.50  0.75  0.08  2  4  1  0.000  0.000  1.000  1.000  0.000  0.000   1.0 |
 |  0.50  0.75  0.08  2  5  1  0.000  0.000  1.000  1.000  0.000  0.000   1.0 |
 |  0.25  0.75  0.08  2  1  1  0.000  0.000  1.000  1.000  0.000  0.000   1.0 |
 |  0.25  0.75  0.08  2  2  1  0.000  0.000  1.000  1.000  0.000  0.000   1.0 |
 |  0.25  0.75  0.08  2  3  1  0.000  0.000  1.000  1.000  0.000  0.000   1.0 |
 |  0.25  0.75  0.08  2  4  1  0.000  0.000  1.000  1.000  0.000  0.000   1.0 |
 |  0.25  0.75  0.08  2  5  1  0.000  0.000  1.000  1.000  0.000  0.000   1.0 |
 | -0.00  0.75  0.07  2  1  1  0.000  0.000  1.000  1.000  0.000  0.000   1.0 |
 | -0.00  0.75  0.07  2  2  1  0.000  0.000  1.000  1.000  0.000  0.000   1.0 |
 | -0.00  0.75  0.07  2  3  1  0.000  0.000  1.000  1.000  0.000  0.000   1.0 |
 | -0.00  0.75  0.07  2  4  1  0.000  0.000  1.000  1.000  0.000  0.000   1.0 |
 | -0.00  0.75  0.07  2  5  1  0.000  0.000  1.000  1.000  0.000  0.000   1.0 |
 |  0.50  0.25  0.07  2  1  1  0.000  0.000  1.000  1.000  0.000  0.000   1.0 |
 |  0.50  0.25  0.07  2  2  1  0.000  0.000  1.000  1.000  0.000  0.000   1.0 |
 |  0.50  0.25  0.07  2  3  1  0.000  0.000  1.000  1.000  0.000  0.000   1.0 |
 |  0.50  0.25  0.07  2  4  1  0.000  0.000  1.000  1.000  0.000  0.000   1.0 |
 |  0.50  0.25  0.07  2  5  1  0.000  0.000  1.000  1.000  0.000  0.000   1.0 |
 |  0.50  0.50  0.07  2  1  1  0.000  0.000  1.000  1.000  0.000  0.000   1.0 |
 |  0.50  0.50  0.07  2  2  1  0.000  0.000  1.000  1.000  0.000  0.000   1.0 |
 |  0.50  0.50  0.07  2  3  1  0.000  0.000  1.000  1.000  0.000  0.000   1.0 |
 |  0.50  0.50  0.07  2  4  1  0.000  0.000  1.000  1.000  0.000  0.000   1.0 |
 |  0.50  0.50  0.07  2  5  1  0.000  0.000  1.000  1.000  0.000  0.000   1.0 |
 |  0.25  0.50  0.08  2  1  1  0.000  0.000  1.000  1.000  0.000  0.000   1.0 |
 |  0.25  0.50  0.08  2  2  1  0.000  0.000  1.000  1.000  0.000  0.000   1.0 |
 |  0.25  0.50  0.08  2  3  1  0.000  0.000  1.000  1.000  0.000  0.000   1.0 |
 |  0.25  0.50  0.08  2  4  1  0.000  0.000  1.000  1.000  0.000  0.000   1.0 |
 |  0.25  0.50  0.08  2  5  1  0.000  0.000  1.000  1.000  0.000  0.000   1.0 |
 |  0.25  0.25  0.07  2  1  1  0.000  0.000  1.000  1.000  0.000  0.000   1.0 |
 |  0.25  0.25  0.07  2  2  1  0.000  0.000  1.000  1.000  0.000  0.000   1.0 |
 |  0.25  0.25  0.07  2  3  1  0.000  0.000  1.000  1.000  0.000  0.000   1.0 |
 |  0.25  0.25  0.07  2  4  1  0.000  0.000  1.000  1.000  0.000  0.000   1.0 |
 |  0.25  0.25  0.07  2  5  1  0.000  0.000  1.000  1.000  0.000  0.000   1.0 |
 | -0.00  0.25  0.07  2  1  1  0.000  0.000  1.000  1.000  0.000  0.000   1.0 |
 | -0.00  0.25  0.07  2  2  1  0.000  0.000  1.000  1.000  0.000  0.000   1.0 |
 | -0.00  0.25  0.07  2  3  1  0.000  0.000  1.000  1.000  0.000  0.000   1.0 |
 | -0.00  0.25  0.07  2  4  1  0.000  0.000  1.000  1.000  0.000  0.000   1.0 |
 | -0.00  0.25  0.07  2  5  1  0.000  0.000  1.000  1.000  0.000  0.000   1.0 |
 | -0.00  0.50  0.07  2  1  1  0.000  0.000  1.000  1.000  0.000  0.000   1.0 |
 | -0.00  0.50  0.07  2  2  1  0.000  0.000  1.000  1.000  0.000  0.000   1.0 |
 | -0.00  0.50  0.07  2  3  1  0.000  0.000  1.000  1.000  0.000  0.000   1.0 |
 | -0.00  0.50  0.07  2  4  1  0.000  0.000  1.000  1.000  0.000  0.000   1.0 |
 | -0.00  0.50  0.07  2  5  1  0.000  0.000  1.000  1.000  0.000  0.000   1.0 |
 |  0.17  0.08  0.00  1  1  1  0.000  0.000  1.000  1.000  0.000  0.000   1.0 |
 |  0.17  0.08  0.00  1  2  1  0.000  0.000  1.000  1.000  0.000  0.000   1.0 |
 |  0.17  0.08  0.00  1  3  1  0.000  0.000  1.000  1.000  0.000  0.000   1.0 |
 |  0.17  0.08  0.14  1  1  1  0.000  0.000  1.000  1.000  0.000  0.000   1.0 |
 |  0.17  0.08  0.14  1  2  1  0.000  0.000  1.000  1.000  0.000  0.000   1.0 |
 |  0.17  0.08  0.14  1  3  1  0.000  0.000  1.000  1.000  0.000  0.000   1.0 |
 |  0.42  0.08 -0.00  1  1  1  0.000  0.000  1.000  1.000  0.000  0.000   1.0 |
 |  0.42  0.08 -0.00  1  2  1  0.000  0.000  1.000  1.000  0.000  0.000   1.0 |
 |  0.42  0.08 -0.00  1  3  1  0.000  0.000  1.000  1.000  0.000  0.000   1.0 |
 |  0.42  0.09  0.14  1  1  1  0.000  0.000  1.000  1.000  0.000  0.000   1.0 |
 |  0.42  0.09  0.14  1  2  1  0.000  0.000  1.000  1.000  0.000  0.000   1.0 |
 |  0.42  0.09  0.14  1  3  1  0.000  0.000  1.000  1.000  0.000  0.000   1.0 |
 |  0.67  0.08 -0.00  1  1  1  0.000  0.000  1.000  1.000  0.000  0.000   1.0 |
 |  0.67  0.08 -0.00  1  2  1  0.000  0.000  1.000  1.000  0.000  0.000   1.0 |
 |  0.67  0.08 -0.00  1  3  1  0.000  0.000  1.000  1.000  0.000  0.000   1.0 |
 |  0.67  0.09  0.14  1  1  1  0.000  0.000  1.000  1.000  0.000  0.000   1.0 |
 |  0.67  0.09  0.14  1  2  1  0.000  0.000  1.000  1.000  0.000  0.000   1.0 |
 |  0.67  0.09  0.14  1  3  1  0.000  0.000  1.000  1.000  0.000  0.000   1.0 |
 |  0.92  0.08  0.00  1  1  1  0.000  0.000  1.000  1.000  0.000  0.000   1.0 |
 |  0.92  0.08  0.00  1  2  1  0.000  0.000  1.000  1.000  0.000  0.000   1.0 |
 |  0.92  0.08  0.00  1  3  1  0.000  0.000  1.000  1.000  0.000  0.000   1.0 |
 |  0.92  0.08  0.14  1  1  1  0.000  0.000  1.000  1.000  0.000  0.000   1.0 |
 |  0.92  0.08  0.14  1  2  1  0.000  0.000  1.000  1.000  0.000  0.000   1.0 |
 |  0.92  0.08  0.14  1  3  1  0.000  0.000  1.000  1.000  0.000  0.000   1.0 |
 |  0.92  0.33 -0.00  1  1  1  0.000  0.000  1.000  1.000  0.000  0.000   1.0 |
 |  0.92  0.33 -0.00  1  2  1  0.000  0.000  1.000  1.000  0.000  0.000   1.0 |
 |  0.92  0.33 -0.00  1  3  1  0.000  0.000  1.000  1.000  0.000  0.000   1.0 |
 |  0.91  0.33  0.14  1  1  1  0.000  0.000  1.000  1.000  0.000  0.000   1.0 |
 |  0.91  0.33  0.14  1  2  1  0.000  0.000  1.000  1.000  0.000  0.000   1.0 |
 |  0.91  0.33  0.14  1  3  1  0.000  0.000  1.000  1.000  0.000  0.000   1.0 |
 |  0.92  0.58 -0.00  1  1  1  0.000  0.000  1.000  1.000  0.000  0.000   1.0 |
 |  0.92  0.58 -0.00  1  2  1  0.000  0.000  1.000  1.000  0.000  0.000   1.0 |
 |  0.92  0.58 -0.00  1  3  1  0.000  0.000  1.000  1.000  0.000  0.000   1.0 |
 |  0.91  0.58  0.14  1  1  1  0.000  0.000  1.000  1.000  0.000  0.000   1.0 |
 |  0.91  0.58  0.14  1  2  1  0.000  0.000  1.000  1.000  0.000  0.000   1.0 |
 |  0.91  0.58  0.14  1  3  1  0.000  0.000  1.000  1.000  0.000  0.000   1.0 |
 |  0.92  0.83  0.00  1  1  1  0.000  0.000  1.000  1.000  0.000  0.000   1.0 |
 |  0.92  0.83  0.00  1  2  1  0.000  0.000  1.000  1.000  0.000  0.000   1.0 |
 |  0.92  0.83  0.00  1  3  1  0.000  0.000  1.000  1.000  0.000  0.000   1.0 |
 |  0.92  0.83  0.14  1  1  1  0.000  0.000  1.000  1.000  0.000  0.000   1.0 |
 |  0.92  0.83  0.14  1  2  1  0.000  0.000  1.000  1.000  0.000  0.000   1.0 |
 |  0.92  0.83  0.14  1  3  1  0.000  0.000  1.000  1.000  0.000  0.000   1.0 |
 |  0.66  0.83  0.00  1  1  1  0.000  0.000  1.000  1.000  0.000  0.000   1.0 |
 |  0.66  0.83  0.00  1  2  1  0.000  0.000  1.000  1.000  0.000  0.000   1.0 |
 |  0.66  0.83  0.00  1  3  1  0.000  0.000  1.000  1.000  0.000  0.000   1.0 |
 |  0.67  0.84  0.15  1  1  1  0.000  0.000  1.000  1.000  0.000  0.000   1.0 |
 |  0.67  0.84  0.15  1  2  1  0.000  0.000  1.000  1.000  0.000  0.000   1.0 |
 |  0.67  0.84  0.15  1  3  1  0.000  0.000  1.000  1.000  0.000  0.000   1.0 |
 |  0.41  0.83  0.01  1  1  1  0.000  0.000  1.000  1.000  0.000  0.000   1.0 |
 |  0.41  0.83  0.01  1  2  1  0.000  0.000  1.000  1.000  0.000  0.000   1.0 |
 |  0.41  0.83  0.01  1  3  1  0.000  0.000  1.000  1.000  0.000  0.000   1.0 |
 |  0.43  0.86  0.15  1  1  1  0.000  0.000  1.000  1.000  0.000  0.000   1.0 |
 |  0.43  0.86  0.15  1  2  1  0.000  0.000  1.000  1.000  0.000  0.000   1.0 |
 |  0.43  0.86  0.15  1  3  1  0.000  0.000  1.000  1.000  0.000  0.000   1.0 |
 |  0.17  0.83  0.00  1  1  1  0.000  0.000  1.000  1.000  0.000  0.000   1.0 |
 |  0.17  0.83  0.00  1  2  1  0.000  0.000  1.000  1.000  0.000  0.000   1.0 |
 |  0.17  0.83  0.00  1  3  1  0.000  0.000  1.000  1.000  0.000  0.000   1.0 |
 |  0.16  0.84  0.15  1  1  1  0.000  0.000  1.000  1.000  0.000  0.000   1.0 |
 |  0.16  0.84  0.15  1  2  1  0.000  0.000  1.000  1.000  0.000  0.000   1.0 |
 |  0.16  0.84  0.15  1  3  1  0.000  0.000  1.000  1.000  0.000  0.000   1.0 |
 |  0.67  0.33 -0.00  1  1  1  0.000  0.000  1.000  1.000  0.000  0.000   1.0 |
 |  0.67  0.33 -0.00  1  2  1  0.000  0.000  1.000  1.000  0.000  0.000   1.0 |
 |  0.67  0.33 -0.00  1  3  1  0.000  0.000  1.000  1.000  0.000  0.000   1.0 |
 |  0.67  0.33  0.14  1  1  1  0.000  0.000  1.000  1.000  0.000  0.000   1.0 |
 |  0.67  0.33  0.14  1  2  1  0.000  0.000  1.000  1.000  0.000  0.000   1.0 |
 |  0.67  0.33  0.14  1  3  1  0.000  0.000  1.000  1.000  0.000  0.000   1.0 |
 |  0.67  0.58 -0.00  1  1  1  0.000  0.000  1.000  1.000  0.000  0.000   1.0 |
 |  0.67  0.58 -0.00  1  2  1  0.000  0.000  1.000  1.000  0.000  0.000   1.0 |
 |  0.67  0.58 -0.00  1  3  1  0.000  0.000  1.000  1.000  0.000  0.000   1.0 |
 |  0.67  0.58  0.14  1  1  1  0.000  0.000  1.000  1.000  0.000  0.000   1.0 |
 |  0.67  0.58  0.14  1  2  1  0.000  0.000  1.000  1.000  0.000  0.000   1.0 |
 |  0.67  0.58  0.14  1  3  1  0.000  0.000  1.000  1.000  0.000  0.000   1.0 |
 |  0.41  0.59  0.01  1  1  1  0.000  0.000  1.000  1.000  0.000  0.000   1.0 |
 |  0.41  0.59  0.01  1  2  1  0.000  0.000  1.000  1.000  0.000  0.000   1.0 |
 |  0.41  0.59  0.01  1  3  1  0.000  0.000  1.000  1.000  0.000  0.000   1.0 |
 |  0.43  0.57  0.15  1  1  1  0.000  0.000  1.000  1.000  0.000  0.000   1.0 |
 |  0.43  0.57  0.15  1  2  1  0.000  0.000  1.000  1.000  0.000  0.000   1.0 |
 |  0.43  0.57  0.15  1  3  1  0.000  0.000  1.000  1.000  0.000  0.000   1.0 |
 |  0.42  0.33 -0.00  1  1  1  0.000  0.000  1.000  1.000  0.000  0.000   1.0 |
 |  0.42  0.33 -0.00  1  2  1  0.000  0.000  1.000  1.000  0.000  0.000   1.0 |
 |  0.42  0.33 -0.00  1  3  1  0.000  0.000  1.000  1.000  0.000  0.000   1.0 |
 |  0.42  0.33  0.14  1  1  1  0.000  0.000  1.000  1.000  0.000  0.000   1.0 |
 |  0.42  0.33  0.14  1  2  1  0.000  0.000  1.000  1.000  0.000  0.000   1.0 |
 |  0.42  0.33  0.14  1  3  1  0.000  0.000  1.000  1.000  0.000  0.000   1.0 |
 |  0.17  0.34  0.00  1  1  1  0.000  0.000  1.000  1.000  0.000  0.000   1.0 |
 |  0.17  0.34  0.00  1  2  1  0.000  0.000  1.000  1.000  0.000  0.000   1.0 |
 |  0.17  0.34  0.00  1  3  1  0.000  0.000  1.000  1.000  0.000  0.000   1.0 |
 |  0.16  0.33  0.15  1  1  1  0.000  0.000  1.000  1.000  0.000  0.000   1.0 |
 |  0.16  0.33  0.15  1  2  1  0.000  0.000  1.000  1.000  0.000  0.000   1.0 |
 |  0.16  0.33  0.15  1  3  1  0.000  0.000  1.000  1.000  0.000  0.000   1.0 |
 |  0.17  0.59  0.01  1  1  1  0.000  0.000  1.000  1.000  0.000  0.000   1.0 |
 |  0.17  0.59  0.01  1  2  1  0.000  0.000  1.000  1.000  0.000  0.000   1.0 |
 |  0.17  0.59  0.01  1  3  1  0.000  0.000  1.000  1.000  0.000  0.000   1.0 |
 |  0.14  0.57  0.15  1  1  1  0.000  0.000  1.000  1.000  0.000  0.000   1.0 |
 |  0.14  0.57  0.15  1  2  1  0.000  0.000  1.000  1.000  0.000  0.000   1.0 |
 |  0.14  0.57  0.15  1  3  1  0.000  0.000  1.000  1.000  0.000  0.000   1.0 |
 +----------------------------------------------------------------------------+
  
                                ------------
                                K-POINT GRID
                                ------------
  
             Grid size =  4 x  4 x  1      Total points =   16
  
 *----------------------------------------------------------------------------*
 | k-point      Fractional Coordinate        Cartesian Coordinate (Ang^-1)    |
 +----------------------------------------------------------------------------+
 |     1    0.00000   0.00000   0.00000   |    0.00000   0.00000   0.00000    |
 |     2    0.00000   0.25000   0.00000   |    0.00000   0.13159   0.00000    |
 |     3    0.00000   0.50000   0.00000   |    0.00000   0.26317   0.00000    |
 |     4    0.00000   0.75000   0.00000   |    0.00000   0.39476   0.00000    |
 |     5    0.25000   0.00000   0.00000   |    0.11396   0.06579   0.00000    |
 |     6    0.25000   0.25000   0.00000   |    0.11396   0.19738   0.00000    |
 |     7    0.25000   0.50000   0.00000   |    0.11396   0.32896   0.00000    |
 |     8    0.25000   0.75000   0.00000   |    0.11396   0.46055   0.00000    |
 |     9    0.50000   0.00000   0.00000   |    0.22791   0.13159   0.00000    |
 |    10    0.50000   0.25000   0.00000   |    0.22791   0.26317   0.00000    |
 |    11    0.50000   0.50000   0.00000   |    0.22791   0.39476   0.00000    |
 |    12    0.50000   0.75000   0.00000   |    0.22791   0.52634   0.00000    |
 |    13    0.75000   0.00000   0.00000   |    0.34187   0.19738   0.00000    |
 |    14    0.75000   0.25000   0.00000   |    0.34187   0.32896   0.00000    |
 |    15    0.75000   0.50000   0.00000   |    0.34187   0.46055   0.00000    |
 |    16    0.75000   0.75000   0.00000   |    0.34187   0.59214   0.00000    |
 *----------------------------------------------------------------------------*
  
  
 *---------------------------------- MAIN ------------------------------------*
 |  Number of Wannier Functions               :               181             |
 |  Number of Objective Wannier Functions     :               181             |
 |  Number of input Bloch states              :               450             |
 |  Output verbosity (1=low, 5=high)          :                 3             |
 |  Timing Level (1=low, 5=high)              :                 1             |
 |  Optimisation (0=memory, 3=speed)          :                 3             |
 |  Length Unit                               :               Ang             |
 |  Post-processing setup (write *.nnkp)      :                 F             |
 |  Using Gamma-only branch of algorithms     :                 F             |
 |  CP code post-processing                   :                 F             |
 |  Wavefunction (UNK) file-type              :       unformatted             |
 |  Wavefunction spin channel                 :                up             |
 *----------------------------------------------------------------------------*
 *------------------------------- WANNIERISE ---------------------------------*
 |  Total number of iterations                :               500             |
 |  Number of CG steps before reset           :                 5             |
 |  Trial step length for line search         :             2.000             |
 |  Convergence tolerence                     :         0.100E-09             |
 |  Convergence window                        :                -1             |
 |  Iterations between writing output         :                50             |
 |  Iterations between backing up to disk     :               100             |
 |  Write r^2_nm to file                      :                 F             |
 |  Write xyz WF centres to file              :                 T             |
 |  Write on-site energies <0n|H|0n> to file  :                 F             |
 |  Use guiding centre to control phases      :                 T             |
 |  Use phases for initial projections        :                 F             |
 |  Iterations before starting guiding centres:                 0             |
 |  Iterations between using guiding centres  :                 1             |
 |  Perform selective localization            :                 F             |
 |  Use constrains in selective localization  :                 F             |
 |  Value of the Lagrange multiplier          :         0.100E+01             |
 *----------------------------------------------------------------------------*
 *------------------------------- DISENTANGLE --------------------------------*
 |  Using band disentanglement                :                 T             |
 |  Total number of iterations                :              4000             |
 |  Mixing ratio                              :             0.500             |
 |  Convergence tolerence                     :         1.000E-10             |
 |  Convergence window                        :                 3             |
 *----------------------------------------------------------------------------*
 *-------------------------------- PLOTTING ----------------------------------*
 |  Plotting Wannier functions                :                 F             |
 |   Size of supercell for plotting           :     2x    2x    2             |
 |   Plotting mode (molecule or crystal)      :           crystal             |
 |   Plotting format                          :          xcrysden             |
 |   Plot radius                              :             3.500             |
 |   Plot scale                               :             1.000             |
 *----------------------------------------------------------------------------*
 |  Plotting Fermi surface                    :                 F             |
 |   Number of plotting points (along b_1)    :                50             |
 |   Plotting format                          :          xcrysden             |
 *----------------------------------------------------------------------------*
 |  Plotting interpolated bandstructure       :                 T             |
 |   Number of K-path sections                :                 3             |
 |   Divisions along first K-path section     :               100             |
 |   Output format                            :           gnuplot             |
 |   Output mode                              :               s-k             |
 *----------------------------------------------------------------------------*
 |   K-space path sections:                                                   |
 |    From: Γ      0.000  0.000  0.000     To: M       0.500  0.000  0.000   |
 |    From: M       0.500  0.000  0.000     To: K       0.333  0.333  0.000   |
 |    From: K       0.333  0.333  0.000     To: Γ      0.000  0.000  0.000   |
 *----------------------------------------------------------------------------*
 |  Plotting Hamiltonian in WF basis          :                 T             |
 *----------------------------------------------------------------------------*
 |  Writing data for Van der Waals post-proc  :                 F             |
 *----------------------------------------------------------------------------*
 *------------------------------- TRANSPORT ----------------------------------*
 |  Transport mode                            :              bulk             |
 |   Hamiltonian from external files          :                 F             |
 |   System extended in                       :              none             |
 |   Centre of the unit cell to which WF are translated (fract. coords):      |
 |                                       0.000000,    0.000000,    0.000000   |
 |  Fermi energy (eV)                         :             0.000             |
 *----------------------------------------------------------------------------*
 Time to read parameters        0.030 (sec)

 *---------------------------------- K-MESH ----------------------------------*
 +----------------------------------------------------------------------------+
 |                    Distance to Nearest-Neighbour Shells                    |
 |                    ------------------------------------                    |
 |          Shell             Distance (Ang^-1)          Multiplicity         |
 |          -----             -----------------          ------------         |
 |             1                   0.131586                      6            |
 |             2                   0.227913                      6            |
 |             3                   0.263171                      6            |
 |             4                   0.265883                      2            |
 |             5                   0.296662                     12            |
 |             6                   0.348143                     12            |
 |             7                   0.350197                     12            |
 |             8                   0.374103                     12            |
 |             9                   0.394757                      6            |
 |            10                   0.438061                     24            |
 |            11                   0.455826                      6            |
 |            12                   0.474439                     12            |
 |            13                   0.475948                     12            |
 |            14                   0.526343                      6            |
 |            15                   0.527704                     12            |
 |            16                   0.531765                      2            |
 |            17                   0.543862                     24            |
 |            18                   0.547804                     12            |
 |            19                   0.573569                     12            |
 |            20                   0.578549                     12            |
 |            21                   0.589686                     12            |
 |            22                   0.593324                     12            |
 |            23                   0.603001                     12            |
 |            24                   0.632198                     24            |
 |            25                   0.635592                     24            |
 |            26                   0.657928                      6            |
 |            27                   0.659018                     24            |
 |            28                   0.662274                     12            |
 |            29                   0.683739                      6            |
 |            30                   0.696286                     12            |
 |            31                   0.700394                     12            |
 |            32                   0.709622                     12            |
 |            33                   0.712647                     24            |
 |            34                   0.732638                     12            |
 |            35                   0.733616                     12            |
 |            36                   0.745324                     24            |
 +----------------------------------------------------------------------------+
 | The b-vectors are chosen automatically                                     |
 | Shell:  1 Multiplicity:  6                                                 |
 | b-vector 1 :        0.000000    0.131586    0.000000      (Ang^-1)         |
 | b-vector 2 :        0.113957    0.065793    0.000000      (Ang^-1)         |
 | b-vector 3 :        0.000000   -0.131586    0.000000      (Ang^-1)         |
 | b-vector 4 :        0.113957   -0.065793    0.000000      (Ang^-1)         |
 | b-vector 5 :       -0.113957   -0.065793    0.000000      (Ang^-1)         |
 | b-vector 6 :       -0.113957    0.065793    0.000000      (Ang^-1)         |
 | Shell:  1 w_b   19.2513662      (Ang^2)                                    |
 | B1 condition is not satisfied: Adding another shell                        |
 | Shell:  2 Multiplicity:  6                                                 |
 | b-vector 1 :        0.113957    0.197379    0.000000      (Ang^-1)         |
 | b-vector 2 :        0.113957   -0.197379    0.000000      (Ang^-1)         |
 | b-vector 3 :        0.227913   -0.000000    0.000000      (Ang^-1)         |
 | b-vector 4 :       -0.227913    0.000000    0.000000      (Ang^-1)         |
 | b-vector 5 :       -0.113957    0.197379    0.000000      (Ang^-1)         |
 | b-vector 6 :       -0.113957   -0.197379    0.000000      (Ang^-1)         |
 | SVD found small singular value, Rejecting this shell and trying the next   |
 | Shell:  3 Multiplicity:  6                                                 |
 | b-vector 1 :        0.000000    0.263171    0.000000      (Ang^-1)         |
 | b-vector 2 :        0.227913    0.131586    0.000000      (Ang^-1)         |
 | b-vector 3 :        0.000000   -0.263171    0.000000      (Ang^-1)         |
 | b-vector 4 :        0.227913   -0.131586    0.000000      (Ang^-1)         |
 | b-vector 5 :       -0.227913   -0.131586    0.000000      (Ang^-1)         |
 | b-vector 6 :       -0.227913    0.131586    0.000000      (Ang^-1)         |
 | This shell is linearly dependent on existing shells: Trying next shell     |
 | Shell:  4 Multiplicity:  2                                                 |
 | b-vector 1 :        0.000000    0.000000    0.265883      (Ang^-1)         |
 | b-vector 2 :        0.000000    0.000000   -0.265883      (Ang^-1)         |
 | Shell:  1 w_b   19.2513662      (Ang^2)                                    |
 | Shell:  2 w_b    7.0727819      (Ang^2)                                    |
 | The following shells are used:   1,  4                                     |
 +----------------------------------------------------------------------------+
 |                        Shell   # Nearest-Neighbours                        |
 |                        -----   --------------------                        |
 |                          1               6                                 |
 |                          4               2                                 |
 +----------------------------------------------------------------------------+
 | Completeness relation is fully satisfied [Eq. (B1), PRB 56, 12847 (1997)]  |
 +----------------------------------------------------------------------------+
 |                  b_k Vectors (Ang^-1) and Weights (Ang^2)                  |
 |                  ----------------------------------------                  |
 |            No.         b_k(x)      b_k(y)      b_k(z)        w_b           |
 |            ---        --------------------------------     --------        |
 |             1         0.000000    0.131586    0.000000    19.251366        |
 |             2         0.113957    0.065793    0.000000    19.251366        |
 |             3         0.000000   -0.131586    0.000000    19.251366        |
 |             4         0.113957   -0.065793    0.000000    19.251366        |
 |             5        -0.113957   -0.065793    0.000000    19.251366        |
 |             6        -0.113957    0.065793    0.000000    19.251366        |
 |             7         0.000000    0.000000    0.265883     7.072782        |
 |             8         0.000000    0.000000   -0.265883     7.072782        |
 +----------------------------------------------------------------------------+
 |                           b_k Directions (Ang^-1)                          |
 |                           -----------------------                          |
 |            No.           x           y           z                         |
 |            ---        --------------------------------                     |
 |             1         0.000000    0.131586    0.000000                     |
 |             2         0.113957    0.065793    0.000000                     |
 |             3         0.113957   -0.065793    0.000000                     |
 |             4         0.000000    0.000000    0.265883                     |
 +----------------------------------------------------------------------------+
  
 Time to get kmesh              0.022 (sec)
 *============================================================================*
 |                              MEMORY ESTIMATE                               |
 |         Maximum RAM allocated during each phase of the calculation         |
 *============================================================================*
 |                        Disentanglement          550.06 Mb                  |
 |                            Wannierise:          183.41 Mb                  |
 |                                                                            |
 |   N.B. by setting optimisation=0 memory usage will be reduced to:          |
 |                        Disentanglement          550.06 Mb                  |
 |                            Wannierise:          119.42 Mb                  |
 |   However, this will result in more i/o and slow down the calculation      |
 |                          plot_wannier:          183.41 Mb                  |
 *----------------------------------------------------------------------------*
  
 Starting a new Wannier90 calculation ...


 Reading overlaps from 1Fe_centreconf.up.mmn    :  Created on 11Jul2023 at 20:16:20

 Reading projections from 1Fe_centreconf.up.amn :  Created on 11Jul2023 at 19:57:54

 Time to read overlaps         63.154 (sec)

 *------------------------------- DISENTANGLE --------------------------------*
 +----------------------------------------------------------------------------+
 |                              Energy  Windows                               |
 |                              ---------------                               |
 |                   Outer:  -30.00000  to   30.00000  (eV)                   |
 |                   Inner:   -6.00000  to    2.50000  (eV)                   |
 +----------------------------------------------------------------------------+
 |                        K-points with Frozen States                         |
 |                        ---------------------------                         |
 |     1     2     3     4     5     6     7     8     9    10    11    12    |
 |    13    14    15    16                                                    |
 +----------------------------------------------------------------------------+
   Number of target bands to extract:  181
 +----------------------------------------------------------------------------+
 |                                  Windows                                   |
 |                                  -------                                   |
 |               K-point      Ndimwin     Ndimfroz    Nfirstwin               |
 |               ----------------------------------------------               |
 |                   1          382          162          69                  |
 |                   2          382          162          69                  |
 |                   3          382          166          69                  |
 |                   4          382          162          69                  |
 |                   5          382          162          69                  |
 |                   6          382          167          69                  |
 |                   7          382          167          69                  |
 |                   8          382          162          69                  |
 |                   9          382          166          69                  |
 |                  10          382          167          69                  |
 |                  11          382          166          69                  |
 |                  12          382          167          69                  |
 |                  13          382          162          69                  |
 |                  14          382          162          69                  |
 |                  15          382          167          69                  |
 |                  16          382          167          69                  |
 +----------------------------------------------------------------------------+

                   Unitarised projection of Wannier functions                  
                   ------------------------------------------                  
   A_mn = <psi_m|g_n> --> S = A.A^+ --> U = S^-1/2.A
   In dis_project... done
   Using an inner window (linner = T)
   In dis_proj_froz...
 K-point   1 ndimwin: 382 we want the 19 leading eigenvector(s) of QPQ
  lambda(  1)= -0.000000000000
  lambda(  2)= -0.000000000000
  lambda(  3)= -0.000000000000
  lambda(  4)= -0.000000000000
  lambda(  5)= -0.000000000000
  lambda(  6)= -0.000000000000
  lambda(  7)= -0.000000000000
  lambda(  8)= -0.000000000000
  lambda(  9)= -0.000000000000
  lambda( 10)= -0.000000000000
  lambda( 11)= -0.000000000000
  lambda( 12)= -0.000000000000
  lambda( 13)= -0.000000000000
  lambda( 14)= -0.000000000000
  lambda( 15)= -0.000000000000
  lambda( 16)= -0.000000000000
  lambda( 17)= -0.000000000000
  lambda( 18)= -0.000000000000
  lambda( 19)= -0.000000000000
  lambda( 20)= -0.000000000000
  lambda( 21)= -0.000000000000
  lambda( 22)= -0.000000000000
  lambda( 23)= -0.000000000000
  lambda( 24)= -0.000000000000
  lambda( 25)= -0.000000000000
  lambda( 26)= -0.000000000000
  lambda( 27)= -0.000000000000
  lambda( 28)= -0.000000000000
  lambda( 29)= -0.000000000000
  lambda( 30)= -0.000000000000
  lambda( 31)= -0.000000000000
  lambda( 32)= -0.000000000000
  lambda( 33)= -0.000000000000
  lambda( 34)= -0.000000000000
  lambda( 35)= -0.000000000000
  lambda( 36)= -0.000000000000
  lambda( 37)= -0.000000000000
  lambda( 38)= -0.000000000000
  lambda( 39)= -0.000000000000
  lambda( 40)= -0.000000000000
  lambda( 41)= -0.000000000000
  lambda( 42)= -0.000000000000
  lambda( 43)= -0.000000000000
  lambda( 44)= -0.000000000000
  lambda( 45)= -0.000000000000
  lambda( 46)= -0.000000000000
  lambda( 47)= -0.000000000000
  lambda( 48)= -0.000000000000
  lambda( 49)= -0.000000000000
  lambda( 50)= -0.000000000000
  lambda( 51)= -0.000000000000
  lambda( 52)= -0.000000000000
  lambda( 53)= -0.000000000000
  lambda( 54)= -0.000000000000
  lambda( 55)= -0.000000000000
  lambda( 56)= -0.000000000000
  lambda( 57)= -0.000000000000
  lambda( 58)= -0.000000000000
  lambda( 59)= -0.000000000000
  lambda( 60)= -0.000000000000
  lambda( 61)= -0.000000000000
  lambda( 62)= -0.000000000000
  lambda( 63)= -0.000000000000
  lambda( 64)= -0.000000000000
  lambda( 65)= -0.000000000000
  lambda( 66)= -0.000000000000
  lambda( 67)= -0.000000000000
  lambda( 68)= -0.000000000000
  lambda( 69)= -0.000000000000
  lambda( 70)= -0.000000000000
  lambda( 71)= -0.000000000000
  lambda( 72)= -0.000000000000
  lambda( 73)= -0.000000000000
  lambda( 74)= -0.000000000000
  lambda( 75)= -0.000000000000
  lambda( 76)= -0.000000000000
  lambda( 77)= -0.000000000000
  lambda( 78)= -0.000000000000
  lambda( 79)= -0.000000000000
  lambda( 80)= -0.000000000000
  lambda( 81)= -0.000000000000
  lambda( 82)= -0.000000000000
  lambda( 83)= -0.000000000000
  lambda( 84)= -0.000000000000
  lambda( 85)= -0.000000000000
  lambda( 86)= -0.000000000000
  lambda( 87)= -0.000000000000
  lambda( 88)= -0.000000000000
  lambda( 89)= -0.000000000000
  lambda( 90)= -0.000000000000
  lambda( 91)= -0.000000000000
  lambda( 92)= -0.000000000000
  lambda( 93)= -0.000000000000
  lambda( 94)= -0.000000000000
  lambda( 95)= -0.000000000000
  lambda( 96)= -0.000000000000
  lambda( 97)= -0.000000000000
  lambda( 98)= -0.000000000000
  lambda( 99)= -0.000000000000
  lambda(100)= -0.000000000000
  lambda(101)=  0.000000000000
  lambda(102)=  0.000000000000
  lambda(103)=  0.000000000000
  lambda(104)=  0.000000000000
  lambda(105)=  0.000000000000
  lambda(106)=  0.000000000000
  lambda(107)=  0.000000000000
  lambda(108)=  0.000000000000
  lambda(109)=  0.000000000000
  lambda(110)=  0.000000000000
  lambda(111)=  0.000000000000
  lambda(112)=  0.000000000000
  lambda(113)=  0.000000000000
  lambda(114)=  0.000000000000
  lambda(115)=  0.000000000000
  lambda(116)=  0.000000000000
  lambda(117)=  0.000000000000
  lambda(118)=  0.000000000000
  lambda(119)=  0.000000000000
  lambda(120)=  0.000000000000
  lambda(121)=  0.000000000000
  lambda(122)=  0.000000000000
  lambda(123)=  0.000000000000
  lambda(124)=  0.000000000000
  lambda(125)=  0.000000000000
  lambda(126)=  0.000000000000
  lambda(127)=  0.000000000000
  lambda(128)=  0.000000000000
  lambda(129)=  0.000000000000
  lambda(130)=  0.000000000000
  lambda(131)=  0.000000000000
  lambda(132)=  0.000000000000
  lambda(133)=  0.000000000000
  lambda(134)=  0.000000000000
  lambda(135)=  0.000000000000
  lambda(136)=  0.000000000000
  lambda(137)=  0.000000000000
  lambda(138)=  0.000000000000
  lambda(139)=  0.000000000000
  lambda(140)=  0.000000000000
  lambda(141)=  0.000000000000
  lambda(142)=  0.000000000000
  lambda(143)=  0.000000000000
  lambda(144)=  0.000000000000
  lambda(145)=  0.000000000000
  lambda(146)=  0.000000000000
  lambda(147)=  0.000000000000
  lambda(148)=  0.000000000000
  lambda(149)=  0.000000000000
  lambda(150)=  0.000000000000
  lambda(151)=  0.000000000000
  lambda(152)=  0.000000000000
  lambda(153)=  0.000000000000
  lambda(154)=  0.000000000000
  lambda(155)=  0.000000000000
  lambda(156)=  0.000000000000
  lambda(157)=  0.000000000000
  lambda(158)=  0.000000000000
  lambda(159)=  0.000000000000
  lambda(160)=  0.000000000000
  lambda(161)=  0.000000000000
  lambda(162)=  0.000000000000
  lambda(163)=  0.000000000000
  lambda(164)=  0.000000000000
  lambda(165)=  0.000000000000
  lambda(166)=  0.000000000000
  lambda(167)=  0.000000000000
  lambda(168)=  0.000000000000
  lambda(169)=  0.000000000000
  lambda(170)=  0.000000000000
  lambda(171)=  0.000000000000
  lambda(172)=  0.000000000000
  lambda(173)=  0.000000000000
  lambda(174)=  0.000000000000
  lambda(175)=  0.000000000000
  lambda(176)=  0.000000000000
  lambda(177)=  0.000000000000
  lambda(178)=  0.000000000000
  lambda(179)=  0.000000000000
  lambda(180)=  0.000000000000
  lambda(181)=  0.000000000000
  lambda(182)=  0.000000000000
  lambda(183)=  0.000000000000
  lambda(184)=  0.000000000000
  lambda(185)=  0.000000000000
  lambda(186)=  0.000000000000
  lambda(187)=  0.000000000000
  lambda(188)=  0.000000000000
  lambda(189)=  0.000000000000
  lambda(190)=  0.000000000000
  lambda(191)=  0.000000000000
  lambda(192)=  0.000000000000
  lambda(193)=  0.000000000000
  lambda(194)=  0.000000000000
  lambda(195)=  0.000000000000
  lambda(196)=  0.000000000000
  lambda(197)=  0.000000000000
  lambda(198)=  0.000000000000
  lambda(199)=  0.000000000000
  lambda(200)=  0.000000000000
  lambda(201)=  0.000000000000
  lambda(202)=  0.000000000000
  lambda(203)=  0.000000000000
  lambda(204)=  0.000000000000
  lambda(205)=  0.000000000000
  lambda(206)=  0.000000000000
  lambda(207)=  0.000000000001
  lambda(208)=  0.000000000006
  lambda(209)=  0.000000006233
  lambda(210)=  0.000000006240
  lambda(211)=  0.000000041551
  lambda(212)=  0.000000041642
  lambda(213)=  0.000000081123
  lambda(214)=  0.000000081298
  lambda(215)=  0.000000203703
  lambda(216)=  0.000000205025
  lambda(217)=  0.000000271753
  lambda(218)=  0.000000376663
  lambda(219)=  0.000000614253
  lambda(220)=  0.000000615700
  lambda(221)=  0.000000903038
  lambda(222)=  0.000000915442
  lambda(223)=  0.000002142015
  lambda(224)=  0.000002144482
  lambda(225)=  0.000005176259
  lambda(226)=  0.000005200036
  lambda(227)=  0.000023275899
  lambda(228)=  0.000023305590
  lambda(229)=  0.000050121631
  lambda(230)=  0.000050192041
  lambda(231)=  0.000082781970
  lambda(232)=  0.000082870827
  lambda(233)=  0.000121712511
  lambda(234)=  0.000121716957
  lambda(235)=  0.000206530890
  lambda(236)=  0.000206608757
  lambda(237)=  0.000234619097
  lambda(238)=  0.000253604543
  lambda(239)=  0.000253829372
  lambda(240)=  0.000288698829
  lambda(241)=  0.000391690567
  lambda(242)=  0.000391719057
  lambda(243)=  0.000524583051
  lambda(244)=  0.000531941977
  lambda(245)=  0.000532033508
  lambda(246)=  0.000660939216
  lambda(247)=  0.001027311660
  lambda(248)=  0.001027368507
  lambda(249)=  0.001109555212
  lambda(250)=  0.001518871435
  lambda(251)=  0.001684046512
  lambda(252)=  0.001684715393
  lambda(253)=  0.002035855634
  lambda(254)=  0.002067195559
  lambda(255)=  0.002068167309
  lambda(256)=  0.002703230077
  lambda(257)=  0.002704111234
  lambda(258)=  0.003422865451
  lambda(259)=  0.004494580970
  lambda(260)=  0.004515964319
  lambda(261)=  0.004516863912
  lambda(262)=  0.005203635059
  lambda(263)=  0.005204470488
  lambda(264)=  0.006444267097
  lambda(265)=  0.006445067146
  lambda(266)=  0.006893525089
  lambda(267)=  0.007105534977
  lambda(268)=  0.007106892937
  lambda(269)=  0.007218269241
  lambda(270)=  0.007219742502
  lambda(271)=  0.007423344649
  lambda(272)=  0.008033746749
  lambda(273)=  0.010770467034
  lambda(274)=  0.010771820128
  lambda(275)=  0.013998617005
  lambda(276)=  0.014045475002
  lambda(277)=  0.014046779363
  lambda(278)=  0.014230540673
  lambda(279)=  0.015322756452
  lambda(280)=  0.015327417318
  lambda(281)=  0.016294288834
  lambda(282)=  0.017267451333
  lambda(283)=  0.017269922967
  lambda(284)=  0.018522931387
  lambda(285)=  0.018523468999
  lambda(286)=  0.019531589593
  lambda(287)=  0.021201322151
  lambda(288)=  0.024364490087
  lambda(289)=  0.024365218015
  lambda(290)=  0.029957974738
  lambda(291)=  0.031751732522
  lambda(292)=  0.031753415557
  lambda(293)=  0.032274768546
  lambda(294)=  0.032807527008
  lambda(295)=  0.032809925879
  lambda(296)=  0.035090646118
  lambda(297)=  0.035091441418
  lambda(298)=  0.036781176021
  lambda(299)=  0.039563281792
  lambda(300)=  0.050231353577
  lambda(301)=  0.050232710172
  lambda(302)=  0.051558553626
  lambda(303)=  0.051560602991
  lambda(304)=  0.053590477643
  lambda(305)=  0.055474672448
  lambda(306)=  0.056086956173
  lambda(307)=  0.056088048434
  lambda(308)=  0.061289286241
  lambda(309)=  0.062032878777
  lambda(310)=  0.065360756802
  lambda(311)=  0.066821624533
  lambda(312)=  0.066823096226
  lambda(313)=  0.067413635715
  lambda(314)=  0.068609672053
  lambda(315)=  0.068611855341
  lambda(316)=  0.070102397572
  lambda(317)=  0.072071142864
  lambda(318)=  0.073085034071
  lambda(319)=  0.073086724623
  lambda(320)=  0.073319571300
  lambda(321)=  0.073321120496
  lambda(322)=  0.115178491120
  lambda(323)=  0.119434177621
  lambda(324)=  0.119435178819
  lambda(325)=  0.122446323543
  lambda(326)=  0.122449786554
  lambda(327)=  0.122820915466
  lambda(328)=  0.123989528446
  lambda(329)=  0.130030380212
  lambda(330)=  0.130034384707
  lambda(331)=  0.130297217815
  lambda(332)=  0.133503885286
  lambda(333)=  0.133504055270
  lambda(334)=  0.135970101684
  lambda(335)=  0.136299966915
  lambda(336)=  0.136300527666
  lambda(337)=  0.138494949706
  lambda(338)=  0.138500440177
  lambda(339)=  0.158745226419
  lambda(340)=  0.161554112095
  lambda(341)=  0.161567396268
  lambda(342)=  0.163418449624
  lambda(343)=  0.169766606302
  lambda(344)=  0.169766755819
  lambda(345)=  0.173262991401
  lambda(346)=  0.174150860920
  lambda(347)=  0.174157421896
  lambda(348)=  0.174370884269
  lambda(349)=  0.174371475684
  lambda(350)=  0.178090712330
  lambda(351)=  0.179060500656
  lambda(352)=  0.179062875216
  lambda(353)=  0.186281504356
  lambda(354)=  0.193049063122
  lambda(355)=  0.193056183606
  lambda(356)=  0.194247518934
  lambda(357)=  0.200014733038
  lambda(358)=  0.200015203287
  lambda(359)=  0.221410299782
  lambda(360)=  0.358404694715
  lambda(361)=  0.552729831811
  lambda(362)=  0.552734471231
  lambda(363)=  0.997985447984
  lambda(364)=  1.000000000000
  lambda(365)=  1.000000000000
  lambda(366)=  1.000000000000
  lambda(367)=  1.000000000000
  lambda(368)=  1.000000000000
  lambda(369)=  1.000000000000
  lambda(370)=  1.000000000000
  lambda(371)=  1.000000000000
  lambda(372)=  1.000000000000
  lambda(373)=  1.000000000000
  lambda(374)=  1.000000000000
  lambda(375)=  1.000000000000
  lambda(376)=  1.000000000000
  lambda(377)=  1.000000000000
  lambda(378)=  1.000000000000
  lambda(379)=  1.000000000000
  lambda(380)=  1.000000000000
  lambda(381)=  1.000000000000
  lambda(382)=  1.000000000000

 K-point   2 ndimwin: 382 we want the 19 leading eigenvector(s) of QPQ
  lambda(  1)= -0.000000000000
  lambda(  2)= -0.000000000000
  lambda(  3)= -0.000000000000
  lambda(  4)= -0.000000000000
  lambda(  5)= -0.000000000000
  lambda(  6)= -0.000000000000
  lambda(  7)= -0.000000000000
  lambda(  8)= -0.000000000000
  lambda(  9)= -0.000000000000
  lambda( 10)= -0.000000000000
  lambda( 11)= -0.000000000000
  lambda( 12)= -0.000000000000
  lambda( 13)= -0.000000000000
  lambda( 14)= -0.000000000000
  lambda( 15)= -0.000000000000
  lambda( 16)= -0.000000000000
  lambda( 17)= -0.000000000000
  lambda( 18)= -0.000000000000
  lambda( 19)= -0.000000000000
  lambda( 20)= -0.000000000000
  lambda( 21)= -0.000000000000
  lambda( 22)= -0.000000000000
  lambda( 23)= -0.000000000000
  lambda( 24)= -0.000000000000
  lambda( 25)= -0.000000000000
  lambda( 26)= -0.000000000000
  lambda( 27)= -0.000000000000
  lambda( 28)= -0.000000000000
  lambda( 29)= -0.000000000000
  lambda( 30)= -0.000000000000
  lambda( 31)= -0.000000000000
  lambda( 32)= -0.000000000000
  lambda( 33)= -0.000000000000
  lambda( 34)= -0.000000000000
  lambda( 35)= -0.000000000000
  lambda( 36)= -0.000000000000
  lambda( 37)= -0.000000000000
  lambda( 38)= -0.000000000000
  lambda( 39)= -0.000000000000
  lambda( 40)= -0.000000000000
  lambda( 41)= -0.000000000000
  lambda( 42)= -0.000000000000
  lambda( 43)= -0.000000000000
  lambda( 44)= -0.000000000000
  lambda( 45)= -0.000000000000
  lambda( 46)= -0.000000000000
  lambda( 47)= -0.000000000000
  lambda( 48)= -0.000000000000
  lambda( 49)= -0.000000000000
  lambda( 50)= -0.000000000000
  lambda( 51)= -0.000000000000
  lambda( 52)= -0.000000000000
  lambda( 53)= -0.000000000000
  lambda( 54)= -0.000000000000
  lambda( 55)= -0.000000000000
  lambda( 56)= -0.000000000000
  lambda( 57)= -0.000000000000
  lambda( 58)= -0.000000000000
  lambda( 59)= -0.000000000000
  lambda( 60)= -0.000000000000
  lambda( 61)= -0.000000000000
  lambda( 62)= -0.000000000000
  lambda( 63)= -0.000000000000
  lambda( 64)= -0.000000000000
  lambda( 65)= -0.000000000000
  lambda( 66)= -0.000000000000
  lambda( 67)= -0.000000000000
  lambda( 68)= -0.000000000000
  lambda( 69)= -0.000000000000
  lambda( 70)= -0.000000000000
  lambda( 71)= -0.000000000000
  lambda( 72)= -0.000000000000
  lambda( 73)= -0.000000000000
  lambda( 74)= -0.000000000000
  lambda( 75)= -0.000000000000
  lambda( 76)= -0.000000000000
  lambda( 77)= -0.000000000000
  lambda( 78)= -0.000000000000
  lambda( 79)= -0.000000000000
  lambda( 80)= -0.000000000000
  lambda( 81)= -0.000000000000
  lambda( 82)= -0.000000000000
  lambda( 83)= -0.000000000000
  lambda( 84)= -0.000000000000
  lambda( 85)= -0.000000000000
  lambda( 86)= -0.000000000000
  lambda( 87)= -0.000000000000
  lambda( 88)= -0.000000000000
  lambda( 89)= -0.000000000000
  lambda( 90)= -0.000000000000
  lambda( 91)= -0.000000000000
  lambda( 92)= -0.000000000000
  lambda( 93)= -0.000000000000
  lambda( 94)= -0.000000000000
  lambda( 95)= -0.000000000000
  lambda( 96)= -0.000000000000
  lambda( 97)= -0.000000000000
  lambda( 98)= -0.000000000000
  lambda( 99)= -0.000000000000
  lambda(100)=  0.000000000000
  lambda(101)=  0.000000000000
  lambda(102)=  0.000000000000
  lambda(103)=  0.000000000000
  lambda(104)=  0.000000000000
  lambda(105)=  0.000000000000
  lambda(106)=  0.000000000000
  lambda(107)=  0.000000000000
  lambda(108)=  0.000000000000
  lambda(109)=  0.000000000000
  lambda(110)=  0.000000000000
  lambda(111)=  0.000000000000
  lambda(112)=  0.000000000000
  lambda(113)=  0.000000000000
  lambda(114)=  0.000000000000
  lambda(115)=  0.000000000000
  lambda(116)=  0.000000000000
  lambda(117)=  0.000000000000
  lambda(118)=  0.000000000000
  lambda(119)=  0.000000000000
  lambda(120)=  0.000000000000
  lambda(121)=  0.000000000000
  lambda(122)=  0.000000000000
  lambda(123)=  0.000000000000
  lambda(124)=  0.000000000000
  lambda(125)=  0.000000000000
  lambda(126)=  0.000000000000
  lambda(127)=  0.000000000000
  lambda(128)=  0.000000000000
  lambda(129)=  0.000000000000
  lambda(130)=  0.000000000000
  lambda(131)=  0.000000000000
  lambda(132)=  0.000000000000
  lambda(133)=  0.000000000000
  lambda(134)=  0.000000000000
  lambda(135)=  0.000000000000
  lambda(136)=  0.000000000000
  lambda(137)=  0.000000000000
  lambda(138)=  0.000000000000
  lambda(139)=  0.000000000000
  lambda(140)=  0.000000000000
  lambda(141)=  0.000000000000
  lambda(142)=  0.000000000000
  lambda(143)=  0.000000000000
  lambda(144)=  0.000000000000
  lambda(145)=  0.000000000000
  lambda(146)=  0.000000000000
  lambda(147)=  0.000000000000
  lambda(148)=  0.000000000000
  lambda(149)=  0.000000000000
  lambda(150)=  0.000000000000
  lambda(151)=  0.000000000000
  lambda(152)=  0.000000000000
  lambda(153)=  0.000000000000
  lambda(154)=  0.000000000000
  lambda(155)=  0.000000000000
  lambda(156)=  0.000000000000
  lambda(157)=  0.000000000000
  lambda(158)=  0.000000000000
  lambda(159)=  0.000000000000
  lambda(160)=  0.000000000000
  lambda(161)=  0.000000000000
  lambda(162)=  0.000000000000
  lambda(163)=  0.000000000000
  lambda(164)=  0.000000000000
  lambda(165)=  0.000000000000
  lambda(166)=  0.000000000000
  lambda(167)=  0.000000000000
  lambda(168)=  0.000000000000
  lambda(169)=  0.000000000000
  lambda(170)=  0.000000000000
  lambda(171)=  0.000000000000
  lambda(172)=  0.000000000000
  lambda(173)=  0.000000000000
  lambda(174)=  0.000000000000
  lambda(175)=  0.000000000000
  lambda(176)=  0.000000000000
  lambda(177)=  0.000000000000
  lambda(178)=  0.000000000000
  lambda(179)=  0.000000000000
  lambda(180)=  0.000000000000
  lambda(181)=  0.000000000000
  lambda(182)=  0.000000000000
  lambda(183)=  0.000000000000
  lambda(184)=  0.000000000000
  lambda(185)=  0.000000000000
  lambda(186)=  0.000000000000
  lambda(187)=  0.000000000000
  lambda(188)=  0.000000000000
  lambda(189)=  0.000000000000
  lambda(190)=  0.000000000000
  lambda(191)=  0.000000000000
  lambda(192)=  0.000000000000
  lambda(193)=  0.000000000000
  lambda(194)=  0.000000000000
  lambda(195)=  0.000000000000
  lambda(196)=  0.000000000000
  lambda(197)=  0.000000000000
  lambda(198)=  0.000000000000
  lambda(199)=  0.000000000000
  lambda(200)=  0.000000000000
  lambda(201)=  0.000000000000
  lambda(202)=  0.000000000206
  lambda(203)=  0.000000000697
  lambda(204)=  0.000000001867
  lambda(205)=  0.000000003262
  lambda(206)=  0.000000026986
  lambda(207)=  0.000000087884
  lambda(208)=  0.000000126612
  lambda(209)=  0.000000275922
  lambda(210)=  0.000000798531
  lambda(211)=  0.000001878105
  lambda(212)=  0.000002930979
  lambda(213)=  0.000004750754
  lambda(214)=  0.000010157164
  lambda(215)=  0.000013419645
  lambda(216)=  0.000018102889
  lambda(217)=  0.000023367673
  lambda(218)=  0.000023614097
  lambda(219)=  0.000031511292
  lambda(220)=  0.000040125377
  lambda(221)=  0.000062823554
  lambda(222)=  0.000064350646
  lambda(223)=  0.000075443764
  lambda(224)=  0.000098026948
  lambda(225)=  0.000135214165
  lambda(226)=  0.000143212267
  lambda(227)=  0.000211329277
  lambda(228)=  0.000240886263
  lambda(229)=  0.000246895765
  lambda(230)=  0.000282553180
  lambda(231)=  0.000347941833
  lambda(232)=  0.000389921319
  lambda(233)=  0.000442355400
  lambda(234)=  0.000456503559
  lambda(235)=  0.000528099273
  lambda(236)=  0.000544511677
  lambda(237)=  0.000669825692
  lambda(238)=  0.000775517575
  lambda(239)=  0.000975322618
  lambda(240)=  0.001046819590
  lambda(241)=  0.001078003797
  lambda(242)=  0.001296562133
  lambda(243)=  0.001414592266
  lambda(244)=  0.001500382841
  lambda(245)=  0.001631682386
  lambda(246)=  0.001765905732
  lambda(247)=  0.001977429211
  lambda(248)=  0.002066446517
  lambda(249)=  0.002266979614
  lambda(250)=  0.002638289939
  lambda(251)=  0.003163692282
  lambda(252)=  0.003475905918
  lambda(253)=  0.003538136854
  lambda(254)=  0.004055724802
  lambda(255)=  0.004111153606
  lambda(256)=  0.004706146016
  lambda(257)=  0.004727350363
  lambda(258)=  0.005220470472
  lambda(259)=  0.005905026760
  lambda(260)=  0.006176156300
  lambda(261)=  0.007298190302
  lambda(262)=  0.007688350609
  lambda(263)=  0.008966734732
  lambda(264)=  0.009421992818
  lambda(265)=  0.009437838481
  lambda(266)=  0.010450566385
  lambda(267)=  0.011206362393
  lambda(268)=  0.012011019732
  lambda(269)=  0.012613990071
  lambda(270)=  0.013082343183
  lambda(271)=  0.013178066291
  lambda(272)=  0.013932516408
  lambda(273)=  0.013997227895
  lambda(274)=  0.014785187928
  lambda(275)=  0.015260517005
  lambda(276)=  0.015417689361
  lambda(277)=  0.015940222588
  lambda(278)=  0.016394873284
  lambda(279)=  0.017097414548
  lambda(280)=  0.017938247972
  lambda(281)=  0.018807977332
  lambda(282)=  0.021293750932
  lambda(283)=  0.022504594671
  lambda(284)=  0.024297124205
  lambda(285)=  0.025060429274
  lambda(286)=  0.025708063055
  lambda(287)=  0.027175003049
  lambda(288)=  0.027890767703
  lambda(289)=  0.028712400553
  lambda(290)=  0.029861590239
  lambda(291)=  0.031935823421
  lambda(292)=  0.036449073672
  lambda(293)=  0.036466650461
  lambda(294)=  0.039824554765
  lambda(295)=  0.043742965098
  lambda(296)=  0.045302069759
  lambda(297)=  0.046315507102
  lambda(298)=  0.047764143486
  lambda(299)=  0.048163701878
  lambda(300)=  0.049022495175
  lambda(301)=  0.051643044978
  lambda(302)=  0.053407660449
  lambda(303)=  0.053480877203
  lambda(304)=  0.055226089868
  lambda(305)=  0.055795364075
  lambda(306)=  0.057151010171
  lambda(307)=  0.059378754319
  lambda(308)=  0.059615728444
  lambda(309)=  0.060992523850
  lambda(310)=  0.063501977690
  lambda(311)=  0.065477493324
  lambda(312)=  0.066328474745
  lambda(313)=  0.069107896932
  lambda(314)=  0.070566068804
  lambda(315)=  0.072383542488
  lambda(316)=  0.072857073867
  lambda(317)=  0.075382557252
  lambda(318)=  0.076163484729
  lambda(319)=  0.076758787740
  lambda(320)=  0.077735924087
  lambda(321)=  0.082621529058
  lambda(322)=  0.093088907229
  lambda(323)=  0.108504249125
  lambda(324)=  0.109718030220
  lambda(325)=  0.111256977265
  lambda(326)=  0.112596567878
  lambda(327)=  0.114796596755
  lambda(328)=  0.117644345855
  lambda(329)=  0.118925401541
  lambda(330)=  0.124157671255
  lambda(331)=  0.127497764458
  lambda(332)=  0.129067850272
  lambda(333)=  0.132981995892
  lambda(334)=  0.133204537522
  lambda(335)=  0.137914110555
  lambda(336)=  0.139299241701
  lambda(337)=  0.143696267561
  lambda(338)=  0.149492639567
  lambda(339)=  0.151209127779
  lambda(340)=  0.152981329013
  lambda(341)=  0.154258870803
  lambda(342)=  0.157591184080
  lambda(343)=  0.159747466892
  lambda(344)=  0.169255906872
  lambda(345)=  0.172327173476
  lambda(346)=  0.173010115613
  lambda(347)=  0.175126709045
  lambda(348)=  0.175764891659
  lambda(349)=  0.177291574737
  lambda(350)=  0.181142295537
  lambda(351)=  0.181494575388
  lambda(352)=  0.183273272521
  lambda(353)=  0.184414528629
  lambda(354)=  0.185804440338
  lambda(355)=  0.191650359601
  lambda(356)=  0.193469026846
  lambda(357)=  0.197682421196
  lambda(358)=  0.219351484292
  lambda(359)=  0.229131783339
  lambda(360)=  0.362751381181
  lambda(361)=  0.417993629691
  lambda(362)=  0.533791645536
  lambda(363)=  0.997286010676
  lambda(364)=  1.000000000000
  lambda(365)=  1.000000000000
  lambda(366)=  1.000000000000
  lambda(367)=  1.000000000000
  lambda(368)=  1.000000000000
  lambda(369)=  1.000000000000
  lambda(370)=  1.000000000000
  lambda(371)=  1.000000000000
  lambda(372)=  1.000000000000
  lambda(373)=  1.000000000000
  lambda(374)=  1.000000000000
  lambda(375)=  1.000000000000
  lambda(376)=  1.000000000000
  lambda(377)=  1.000000000000
  lambda(378)=  1.000000000000
  lambda(379)=  1.000000000000
  lambda(380)=  1.000000000000
  lambda(381)=  1.000000000000
  lambda(382)=  1.000000000000

 K-point   3 ndimwin: 382 we want the 15 leading eigenvector(s) of QPQ
  lambda(  1)= -0.000000000000
  lambda(  2)= -0.000000000000
  lambda(  3)= -0.000000000000
  lambda(  4)= -0.000000000000
  lambda(  5)= -0.000000000000
  lambda(  6)= -0.000000000000
  lambda(  7)= -0.000000000000
  lambda(  8)= -0.000000000000
  lambda(  9)= -0.000000000000
  lambda( 10)= -0.000000000000
  lambda( 11)= -0.000000000000
  lambda( 12)= -0.000000000000
  lambda( 13)= -0.000000000000
  lambda( 14)= -0.000000000000
  lambda( 15)= -0.000000000000
  lambda( 16)= -0.000000000000
  lambda( 17)= -0.000000000000
  lambda( 18)= -0.000000000000
  lambda( 19)= -0.000000000000
  lambda( 20)= -0.000000000000
  lambda( 21)= -0.000000000000
  lambda( 22)= -0.000000000000
  lambda( 23)= -0.000000000000
  lambda( 24)= -0.000000000000
  lambda( 25)= -0.000000000000
  lambda( 26)= -0.000000000000
  lambda( 27)= -0.000000000000
  lambda( 28)= -0.000000000000
  lambda( 29)= -0.000000000000
  lambda( 30)= -0.000000000000
  lambda( 31)= -0.000000000000
  lambda( 32)= -0.000000000000
  lambda( 33)= -0.000000000000
  lambda( 34)= -0.000000000000
  lambda( 35)= -0.000000000000
  lambda( 36)= -0.000000000000
  lambda( 37)= -0.000000000000
  lambda( 38)= -0.000000000000
  lambda( 39)= -0.000000000000
  lambda( 40)= -0.000000000000
  lambda( 41)= -0.000000000000
  lambda( 42)= -0.000000000000
  lambda( 43)= -0.000000000000
  lambda( 44)= -0.000000000000
  lambda( 45)= -0.000000000000
  lambda( 46)= -0.000000000000
  lambda( 47)= -0.000000000000
  lambda( 48)= -0.000000000000
  lambda( 49)= -0.000000000000
  lambda( 50)= -0.000000000000
  lambda( 51)= -0.000000000000
  lambda( 52)= -0.000000000000
  lambda( 53)= -0.000000000000
  lambda( 54)= -0.000000000000
  lambda( 55)= -0.000000000000
  lambda( 56)= -0.000000000000
  lambda( 57)= -0.000000000000
  lambda( 58)= -0.000000000000
  lambda( 59)= -0.000000000000
  lambda( 60)= -0.000000000000
  lambda( 61)= -0.000000000000
  lambda( 62)= -0.000000000000
  lambda( 63)= -0.000000000000
  lambda( 64)= -0.000000000000
  lambda( 65)= -0.000000000000
  lambda( 66)= -0.000000000000
  lambda( 67)= -0.000000000000
  lambda( 68)= -0.000000000000
  lambda( 69)= -0.000000000000
  lambda( 70)= -0.000000000000
  lambda( 71)= -0.000000000000
  lambda( 72)= -0.000000000000
  lambda( 73)= -0.000000000000
  lambda( 74)= -0.000000000000
  lambda( 75)= -0.000000000000
  lambda( 76)= -0.000000000000
  lambda( 77)= -0.000000000000
  lambda( 78)= -0.000000000000
  lambda( 79)= -0.000000000000
  lambda( 80)= -0.000000000000
  lambda( 81)= -0.000000000000
  lambda( 82)= -0.000000000000
  lambda( 83)= -0.000000000000
  lambda( 84)= -0.000000000000
  lambda( 85)= -0.000000000000
  lambda( 86)= -0.000000000000
  lambda( 87)= -0.000000000000
  lambda( 88)= -0.000000000000
  lambda( 89)= -0.000000000000
  lambda( 90)= -0.000000000000
  lambda( 91)= -0.000000000000
  lambda( 92)= -0.000000000000
  lambda( 93)= -0.000000000000
  lambda( 94)= -0.000000000000
  lambda( 95)= -0.000000000000
  lambda( 96)= -0.000000000000
  lambda( 97)= -0.000000000000
  lambda( 98)= -0.000000000000
  lambda( 99)= -0.000000000000
  lambda(100)= -0.000000000000
  lambda(101)=  0.000000000000
  lambda(102)=  0.000000000000
  lambda(103)=  0.000000000000
  lambda(104)=  0.000000000000
  lambda(105)=  0.000000000000
  lambda(106)=  0.000000000000
  lambda(107)=  0.000000000000
  lambda(108)=  0.000000000000
  lambda(109)=  0.000000000000
  lambda(110)=  0.000000000000
  lambda(111)=  0.000000000000
  lambda(112)=  0.000000000000
  lambda(113)=  0.000000000000
  lambda(114)=  0.000000000000
  lambda(115)=  0.000000000000
  lambda(116)=  0.000000000000
  lambda(117)=  0.000000000000
  lambda(118)=  0.000000000000
  lambda(119)=  0.000000000000
  lambda(120)=  0.000000000000
  lambda(121)=  0.000000000000
  lambda(122)=  0.000000000000
  lambda(123)=  0.000000000000
  lambda(124)=  0.000000000000
  lambda(125)=  0.000000000000
  lambda(126)=  0.000000000000
  lambda(127)=  0.000000000000
  lambda(128)=  0.000000000000
  lambda(129)=  0.000000000000
  lambda(130)=  0.000000000000
  lambda(131)=  0.000000000000
  lambda(132)=  0.000000000000
  lambda(133)=  0.000000000000
  lambda(134)=  0.000000000000
  lambda(135)=  0.000000000000
  lambda(136)=  0.000000000000
  lambda(137)=  0.000000000000
  lambda(138)=  0.000000000000
  lambda(139)=  0.000000000000
  lambda(140)=  0.000000000000
  lambda(141)=  0.000000000000
  lambda(142)=  0.000000000000
  lambda(143)=  0.000000000000
  lambda(144)=  0.000000000000
  lambda(145)=  0.000000000000
  lambda(146)=  0.000000000000
  lambda(147)=  0.000000000000
  lambda(148)=  0.000000000000
  lambda(149)=  0.000000000000
  lambda(150)=  0.000000000000
  lambda(151)=  0.000000000000
  lambda(152)=  0.000000000000
  lambda(153)=  0.000000000000
  lambda(154)=  0.000000000000
  lambda(155)=  0.000000000000
  lambda(156)=  0.000000000000
  lambda(157)=  0.000000000000
  lambda(158)=  0.000000000000
  lambda(159)=  0.000000000000
  lambda(160)=  0.000000000000
  lambda(161)=  0.000000000000
  lambda(162)=  0.000000000000
  lambda(163)=  0.000000000000
  lambda(164)=  0.000000000000
  lambda(165)=  0.000000000000
  lambda(166)=  0.000000000000
  lambda(167)=  0.000000000000
  lambda(168)=  0.000000000000
  lambda(169)=  0.000000000000
  lambda(170)=  0.000000000000
  lambda(171)=  0.000000000000
  lambda(172)=  0.000000000000
  lambda(173)=  0.000000000000
  lambda(174)=  0.000000000000
  lambda(175)=  0.000000000000
  lambda(176)=  0.000000000000
  lambda(177)=  0.000000000000
  lambda(178)=  0.000000000000
  lambda(179)=  0.000000000000
  lambda(180)=  0.000000000000
  lambda(181)=  0.000000000000
  lambda(182)=  0.000000000000
  lambda(183)=  0.000000000000
  lambda(184)=  0.000000000000
  lambda(185)=  0.000000000000
  lambda(186)=  0.000000000000
  lambda(187)=  0.000000000000
  lambda(188)=  0.000000000000
  lambda(189)=  0.000000000000
  lambda(190)=  0.000000000000
  lambda(191)=  0.000000000000
  lambda(192)=  0.000000000000
  lambda(193)=  0.000000000000
  lambda(194)=  0.000000000000
  lambda(195)=  0.000000000000
  lambda(196)=  0.000000000000
  lambda(197)=  0.000000000000
  lambda(198)=  0.000000000000
  lambda(199)=  0.000000000000
  lambda(200)=  0.000000000000
  lambda(201)=  0.000000000000
  lambda(202)=  0.000000000119
  lambda(203)=  0.000000000864
  lambda(204)=  0.000000002655
  lambda(205)=  0.000000005610
  lambda(206)=  0.000000040510
  lambda(207)=  0.000000090447
  lambda(208)=  0.000000341526
  lambda(209)=  0.000000571851
  lambda(210)=  0.000000736693
  lambda(211)=  0.000002323582
  lambda(212)=  0.000007040878
  lambda(213)=  0.000009263150
  lambda(214)=  0.000012434250
  lambda(215)=  0.000022379774
  lambda(216)=  0.000028815091
  lambda(217)=  0.000041871446
  lambda(218)=  0.000046567883
  lambda(219)=  0.000048283709
  lambda(220)=  0.000060457247
  lambda(221)=  0.000061547932
  lambda(222)=  0.000065203148
  lambda(223)=  0.000076515994
  lambda(224)=  0.000085611805
  lambda(225)=  0.000113486914
  lambda(226)=  0.000160263807
  lambda(227)=  0.000165908939
  lambda(228)=  0.000216896587
  lambda(229)=  0.000230861985
  lambda(230)=  0.000329703321
  lambda(231)=  0.000338928917
  lambda(232)=  0.000379513897
  lambda(233)=  0.000474421063
  lambda(234)=  0.000639704711
  lambda(235)=  0.000680859679
  lambda(236)=  0.000749659181
  lambda(237)=  0.000881373405
  lambda(238)=  0.000888861610
  lambda(239)=  0.001045444118
  lambda(240)=  0.001179442098
  lambda(241)=  0.001289138165
  lambda(242)=  0.001328233526
  lambda(243)=  0.001587567864
  lambda(244)=  0.001807498195
  lambda(245)=  0.002067527460
  lambda(246)=  0.002160887664
  lambda(247)=  0.002224221851
  lambda(248)=  0.002521564238
  lambda(249)=  0.003198597254
  lambda(250)=  0.003400467846
  lambda(251)=  0.003489424396
  lambda(252)=  0.003770124288
  lambda(253)=  0.003780657081
  lambda(254)=  0.004304742706
  lambda(255)=  0.004846466696
  lambda(256)=  0.004911930588
  lambda(257)=  0.005523765612
  lambda(258)=  0.005905488047
  lambda(259)=  0.006620963931
  lambda(260)=  0.007524137071
  lambda(261)=  0.007926714128
  lambda(262)=  0.008643787816
  lambda(263)=  0.008911291117
  lambda(264)=  0.009494094893
  lambda(265)=  0.009817911956
  lambda(266)=  0.009836864191
  lambda(267)=  0.010274006388
  lambda(268)=  0.010717509541
  lambda(269)=  0.010747228373
  lambda(270)=  0.011697384002
  lambda(271)=  0.011729312618
  lambda(272)=  0.011827548625
  lambda(273)=  0.012656624162
  lambda(274)=  0.012992285107
  lambda(275)=  0.015023835346
  lambda(276)=  0.016160682861
  lambda(277)=  0.016223357769
  lambda(278)=  0.016723346151
  lambda(279)=  0.018306059897
  lambda(280)=  0.019752260282
  lambda(281)=  0.020503198964
  lambda(282)=  0.021049440678
  lambda(283)=  0.021187359504
  lambda(284)=  0.023604079120
  lambda(285)=  0.024261464373
  lambda(286)=  0.025957027334
  lambda(287)=  0.028248580916
  lambda(288)=  0.029236661878
  lambda(289)=  0.030178757104
  lambda(290)=  0.031222189718
  lambda(291)=  0.032279629493
  lambda(292)=  0.033411916386
  lambda(293)=  0.035007264368
  lambda(294)=  0.036045429143
  lambda(295)=  0.040188480301
  lambda(296)=  0.041798644421
  lambda(297)=  0.042180279486
  lambda(298)=  0.042993938276
  lambda(299)=  0.043909402725
  lambda(300)=  0.047269020929
  lambda(301)=  0.049225670398
  lambda(302)=  0.049626081788
  lambda(303)=  0.051614752986
  lambda(304)=  0.053435069378
  lambda(305)=  0.053479431414
  lambda(306)=  0.054107196119
  lambda(307)=  0.056095784902
  lambda(308)=  0.057709427344
  lambda(309)=  0.058870125404
  lambda(310)=  0.059258756570
  lambda(311)=  0.059834285898
  lambda(312)=  0.060603872093
  lambda(313)=  0.062048722248
  lambda(314)=  0.062839164899
  lambda(315)=  0.064955096227
  lambda(316)=  0.065171127687
  lambda(317)=  0.072710499214
  lambda(318)=  0.074805069956
  lambda(319)=  0.078989780701
  lambda(320)=  0.082286987024
  lambda(321)=  0.092449996734
  lambda(322)=  0.093145656877
  lambda(323)=  0.093165124767
  lambda(324)=  0.096216059282
  lambda(325)=  0.097841206549
  lambda(326)=  0.100066511929
  lambda(327)=  0.101817177811
  lambda(328)=  0.102087506220
  lambda(329)=  0.103132285690
  lambda(330)=  0.104760527294
  lambda(331)=  0.106761192403
[...]
  WF centre and spread   95  (  5.174025,  1.079833,  3.431960 )     2.31331686
  WF centre and spread   96  (  5.189094,  1.050825,  3.299557 )     2.23041253
  WF centre and spread   97  (  5.155185,  1.079938,  3.307036 )     2.12168047
  WF centre and spread   98  (  8.605357,  0.999925, -0.111283 )     2.28856628
  WF centre and spread   99  (  8.599830,  0.969977,  0.025147 )     2.20496407
  WF centre and spread  100  (  8.625414,  0.992542,  0.010179 )     2.07386878
  WF centre and spread  101  (  8.610087,  1.079684,  3.432034 )     2.31280710
  WF centre and spread  102  (  8.595152,  1.050614,  3.299654 )     2.22971003
  WF centre and spread  103  (  8.629057,  1.080090,  3.306903 )     2.12200151
  WF centre and spread  104  ( 12.042766,  1.003720, -0.067379 )     2.23265927
  WF centre and spread  105  ( 12.054612,  0.980660,  0.064959 )     2.10212207
  WF centre and spread  106  ( 12.055617,  1.017081,  0.061776 )     2.06437186
  WF centre and spread  107  ( 12.047139,  1.001139,  3.460622 )     2.24921351
  WF centre and spread  108  ( 12.053321,  0.979891,  3.333525 )     2.14199898
  WF centre and spread  109  ( 12.058574,  1.016954,  3.333112 )     2.09953390
  WF centre and spread  110  ( 10.326358,  3.984509, -0.110473 )     2.28547880
  WF centre and spread  111  ( 10.367866,  3.975090,  0.012660 )     2.09239290
  WF centre and spread  112  ( 10.332237,  4.003298,  0.023517 )     2.18678002
  WF centre and spread  113  ( 10.259869,  3.940475,  3.431056 )     2.31012537
  WF centre and spread  114  ( 10.294208,  3.919120,  3.313437 )     2.09862265
  WF centre and spread  115  ( 10.259425,  3.976582,  3.292331 )     2.25135137
  WF centre and spread  116  (  8.610478,  6.951429, -0.108800 )     2.27383609
  WF centre and spread  117  (  8.612703,  6.954579,  0.016751 )     2.10976995
  WF centre and spread  118  (  8.641630,  6.985907,  0.020414 )     2.15602129
  WF centre and spread  119  (  8.537616,  6.915821,  3.428794 )     2.29756942
  WF centre and spread  120  (  8.548737,  6.906584,  3.294500 )     2.18859786
  WF centre and spread  121  (  8.561171,  6.949685,  3.309768 )     2.14803859
  WF centre and spread  122  (  6.892080,  9.924789, -0.067210 )     2.22929763
  WF centre and spread  123  (  6.892135,  9.924120,  0.060267 )     2.04450514
  WF centre and spread  124  (  6.892087,  9.958873,  0.066669 )     2.12310880
  WF centre and spread  125  (  6.892079,  9.929716,  3.460513 )     2.24676177
  WF centre and spread  126  (  6.892135,  9.928348,  3.332824 )     2.07670621
  WF centre and spread  127  (  6.892087,  9.956605,  3.333614 )     2.16529177
  WF centre and spread  128  (  3.397951,  9.918137, -0.010416 )     2.17576368
  WF centre and spread  129  (  3.409680,  9.904584,  0.119911 )     2.22461285
  WF centre and spread  130  (  3.402994,  9.946386,  0.120685 )     2.13087382
  WF centre and spread  131  (  3.488183,  9.969492,  3.534995 )     2.17219929
  WF centre and spread  132  (  3.484741,  9.946895,  3.384496 )     2.26603511
  WF centre and spread  133  (  3.490138,  9.998441,  3.393977 )     2.14374657
  WF centre and spread  134  ( -0.000011,  9.929599,  0.122384 )     2.46096058
  WF centre and spread  135  (  0.000011,  9.888522,  0.180098 )     2.08389178
  WF centre and spread  136  ( -0.000026,  9.950216,  0.224605 )     2.37727177
  WF centre and spread  137  ( -0.000008,  9.762442,  4.079080 )     4.07690969
  WF centre and spread  138  (  0.000033, 10.167507,  3.540691 )     2.15963064
  WF centre and spread  139  ( -0.000070, 10.262718,  3.541749 )     2.38685027
  WF centre and spread  140  ( -3.397950,  9.918137, -0.010413 )     2.17582353
  WF centre and spread  141  ( -3.409623,  9.904736,  0.119914 )     2.22487610
  WF centre and spread  142  ( -3.403006,  9.946469,  0.120696 )     2.13101751
  WF centre and spread  143  ( -3.488189,  9.969486,  3.534990 )     2.17220519
  WF centre and spread  144  ( -3.484677,  9.947050,  3.384501 )     2.26604861
  WF centre and spread  145  ( -3.490144,  9.998537,  3.393956 )     2.14409172
  WF centre and spread  146  (  6.891670,  4.241305,  0.031720 )     2.65836413
  WF centre and spread  147  (  6.892258,  3.962588, -0.062372 )     2.07348600
  WF centre and spread  148  (  6.892066,  3.980277, -0.060418 )     2.05675402
  WF centre and spread  149  (  6.890161,  4.269378,  3.180023 )     2.71497162
  WF centre and spread  150  (  6.893962,  3.966213,  3.297415 )     2.09158517
  WF centre and spread  151  (  6.891828,  3.974947,  3.294515 )     2.07341480
  WF centre and spread  152  (  5.173769,  6.951270, -0.108760 )     2.27388368
  WF centre and spread  153  (  5.171684,  6.954445,  0.016916 )     2.11027645
  WF centre and spread  154  (  5.142466,  6.986168,  0.020362 )     2.15538024
  WF centre and spread  155  (  5.246706,  6.915361,  3.428643 )     2.29786819
  WF centre and spread  156  (  5.235688,  6.906443,  3.294306 )     2.18922803
  WF centre and spread  157  (  5.222839,  6.950240,  3.309883 )     2.14719737
  WF centre and spread  158  (  1.709426,  6.970035,  0.120809 )     2.45482195
  WF centre and spread  159  (  1.702955,  6.955193,  0.214696 )     2.31019317
  WF centre and spread  160  (  1.692835,  7.002519,  0.191199 )     2.15631153
  WF centre and spread  161  (  0.005965,  7.952586,  6.528563 )     3.96502746
  WF centre and spread  162  (  1.561137,  7.055383,  4.078987 )     4.08024137
  WF centre and spread  163  (  1.918633,  6.849113,  3.540726 )     2.17817909
  WF centre and spread  164  (  3.458025,  3.984438, -0.110362 )     2.28604787
  WF centre and spread  165  (  3.416295,  3.975085,  0.012651 )     2.09244865
  WF centre and spread  166  (  3.452067,  4.003283,  0.023611 )     2.18707567
  WF centre and spread  167  (  3.524596,  3.940549,  3.430902 )     2.31081724
  WF centre and spread  168  (  3.489974,  3.919118,  3.313444 )     2.09868938
  WF centre and spread  169  (  3.524781,  3.976406,  3.292245 )     2.25168768
  WF centre and spread  170  (  0.000013,  4.032238, -0.010482 )     2.17912952
  WF centre and spread  171  ( -0.000005,  4.010508,  0.121231 )     2.08065316
  WF centre and spread  172  (  0.000225,  4.042649,  0.119445 )     2.27753577
  WF centre and spread  173  (  0.000004,  3.928936,  3.534654 )     2.17494083
  WF centre and spread  174  ( -0.000000,  3.902132,  3.398560 )     2.08197490
  WF centre and spread  175  (  0.000239,  3.963240,  3.380332 )     2.32991167
  WF centre and spread  176  ( -1.709219,  6.970163,  0.120882 )     2.45427364
  WF centre and spread  177  ( -1.702987,  6.955276,  0.214604 )     2.30887112
  WF centre and spread  178  ( -1.692829,  7.002476,  0.191166 )     2.15621981
  WF centre and spread  179  ( -1.562200,  7.055896,  4.079795 )     4.08048303
  WF centre and spread  180  ( -1.979001,  6.821218,  3.541552 )     2.33216816
  WF centre and spread  181  ( -1.930636,  6.840258,  3.540854 )     2.21451852
  Sum of centres and spreads (613.403468,927.116256,339.214362 )   409.27254641
 
         Spreads (Ang^2)       Omega I      =   374.477969560
        ================       Omega D      =     0.004684223
                               Omega OD     =    34.789892519
    Final Spread (Ang^2)       Omega Total  =   409.272546302
 ------------------------------------------------------------------------------
 Final centres (translated to home cell for writing xyz file)
  WF centre    1  (  0.015075,  7.947780,  5.656122 )
  WF centre    2  ( -0.022215,  7.951708,  5.759495 )
  WF centre    3  ( -0.000042,  7.983109,  5.759512 )
  WF centre    4  (  0.001556,  7.915924,  5.680709 )
  WF centre    5  (  0.000000,  7.998611,  5.680067 )
  WF centre    6  ( -0.000001, -0.004394,  1.696433 )
  WF centre    7  (  0.000018,  0.026387,  1.698000 )
  WF centre    8  ( -0.000007, -0.026498,  1.698014 )
  WF centre    9  ( -0.000000,  0.142695,  1.696259 )
  WF centre   10  (  0.000000, -0.136865,  1.696276 )
  WF centre   11  (  3.473067, -0.004453,  1.702099 )
  WF centre   12  (  3.558304,  0.115238,  1.701713 )
  WF centre   13  (  3.470913, -0.020685,  1.712077 )
  WF centre   14  (  3.466801,  0.140368,  1.702094 )
  WF centre   15  (  3.484222, -0.138068,  1.703463 )
  WF centre   16  (  6.892095,  0.035866,  1.674918 )
  WF centre   17  (  6.892089,  0.074280,  1.695107 )
  WF centre   18  (  6.892087, -0.563069,  2.232504 )
  WF centre   19  (  6.892114,  0.192976,  1.681720 )
  WF centre   20  (  6.892040, -0.104028,  1.683746 )
  WF centre   21  ( 10.311094, -0.004452,  1.702100 )
  WF centre   22  ( 10.227417,  0.113403,  1.701731 )
  WF centre   23  ( 10.313158, -0.020671,  1.712078 )
  WF centre   24  ( 10.317375,  0.140373,  1.702094 )
  WF centre   25  ( 10.299949, -0.138068,  1.703461 )
  WF centre   26  (  8.586914,  2.996149,  1.608448 )
  WF centre   27  (  8.033945,  3.684427,  1.627779 )
  WF centre   28  (  8.605590,  2.989536,  1.623228 )
  WF centre   29  (  8.590697,  3.144699,  1.613316 )
  WF centre   30  (  8.576338,  2.861835,  1.612576 )
  WF centre   31  (  6.892056,  5.928724,  1.606720 )
  WF centre   32  (  6.892187,  5.957867,  1.623582 )
  WF centre   33  (  1.992362,  6.812258,  3.542063 )
  WF centre   34  (  6.891837,  6.074736,  1.612447 )
  WF centre   35  (  6.892387,  5.798595,  1.614239 )
  WF centre   36  (  5.155921,  8.925027,  1.700649 )
  WF centre   37  (  5.152427,  8.945332,  1.711909 )
  WF centre   38  (  5.201001,  8.794395,  1.702189 )
  WF centre   39  (  5.164670,  9.070882,  1.704105 )
  WF centre   40  (  5.140414,  8.792254,  1.702252 )
  WF centre   41  (  1.726834,  8.951058,  1.867894 )
  WF centre   42  (  1.672512,  9.024342,  1.898439 )
  WF centre   43  (  1.731176,  8.855103,  1.952567 )
  WF centre   44  (  1.722097,  9.089344,  1.852332 )
  WF centre   45  (  1.707050,  8.812673,  1.859938 )
  WF centre   46  ( -1.726804,  8.951056,  1.867957 )
  WF centre   47  ( -1.673492,  9.024786,  1.897145 )
  WF centre   48  ( -1.729968,  8.855593,  1.953709 )
  WF centre   49  ( -1.722011,  9.089335,  1.852306 )
  WF centre   50  ( -1.707135,  8.812687,  1.860086 )
  WF centre   51  ( -5.155924,  8.925031,  1.700650 )
  WF centre   52  ( -5.152374,  8.945273,  1.711914 )
  WF centre   53  ( -5.201499,  8.793570,  1.702166 )
  WF centre   54  ( -5.164657,  9.070882,  1.704112 )
  WF centre   55  ( -5.140430,  8.792252,  1.702251 )
  WF centre   56  (  5.197318,  2.996089,  1.608440 )
  WF centre   57  (  5.752022,  3.690778,  1.627759 )
  WF centre   58  (  5.178595,  2.989526,  1.623157 )
  WF centre   59  (  5.193467,  3.144745,  1.613404 )
  WF centre   60  (  5.207818,  2.861851,  1.612539 )
  WF centre   61  (  3.481932,  5.940828,  1.672680 )
  WF centre   62  (  2.958178,  6.249847,  2.231958 )
  WF centre   63  (  3.509255,  5.932589,  1.699526 )
  WF centre   64  (  3.477317,  6.097740,  1.681006 )
  WF centre   65  (  3.486941,  5.806885,  1.682312 )
  WF centre   66  ( -0.000022,  5.958049,  1.867083 )
  WF centre   67  ( -0.000028,  6.036998,  1.990885 )
  WF centre   68  (  0.000936,  5.950983,  1.858329 )
  WF centre   69  (  0.000196,  6.127387,  1.866577 )
  WF centre   70  ( -0.000133,  5.841634,  1.850232 )
  WF centre   71  (  1.736640,  3.002857,  1.702164 )
  WF centre   72  (  1.789267,  3.040960,  1.707491 )
  WF centre   73  (  1.803863,  3.002428,  1.705795 )
  WF centre   74  (  1.735244,  3.158903,  1.702908 )
  WF centre   75  (  1.737227,  2.868989,  1.703045 )
  WF centre   76  ( -1.736643,  3.002858,  1.702166 )
  WF centre   77  ( -1.788705,  3.040870,  1.707484 )
  WF centre   78  ( -1.803283,  3.002230,  1.705801 )
  WF centre   79  ( -1.735252,  3.158901,  1.702904 )
  WF centre   80  ( -1.737222,  2.868987,  1.703049 )
  WF centre   81  ( -3.481928,  5.940833,  1.672675 )
  WF centre   82  ( -2.958240,  6.249827,  2.232041 )
  WF centre   83  ( -3.509245,  5.932585,  1.699551 )
  WF centre   84  ( -3.477321,  6.097731,  1.680992 )
  WF centre   85  ( -3.486948,  5.806885,  1.682305 )
  WF centre   86  (  1.741562,  1.003818, -0.067322 )
  WF centre   87  (  1.729612,  0.980658,  0.064986 )
  WF centre   88  (  1.728555,  1.017050,  0.061778 )
  WF centre   89  (  1.737186,  1.001235,  3.460570 )
  WF centre   90  (  1.730920,  0.979895,  3.333492 )
  WF centre   91  (  1.725591,  1.016923,  3.333110 )
  WF centre   92  (  5.178790,  1.000126, -0.111189 )
  WF centre   93  (  5.184411,  0.970177,  0.025220 )
  WF centre   94  (  5.158821,  0.992341,  0.010066 )
  WF centre   95  (  5.174025,  1.079833,  3.431960 )
  WF centre   96  (  5.189094,  1.050825,  3.299557 )
  WF centre   97  (  5.155185,  1.079938,  3.307036 )
  WF centre   98  (  8.605357,  0.999925, -0.111283 )
  WF centre   99  (  8.599830,  0.969977,  0.025147 )
  WF centre  100  (  8.625414,  0.992542,  0.010179 )
  WF centre  101  (  8.610087,  1.079684,  3.432034 )
  WF centre  102  (  8.595152,  1.050614,  3.299654 )
  WF centre  103  (  8.629057,  1.080090,  3.306903 )
  WF centre  104  ( 12.042766,  1.003720, -0.067379 )
  WF centre  105  ( 12.054612,  0.980660,  0.064959 )
  WF centre  106  ( 12.055617,  1.017081,  0.061776 )
  WF centre  107  ( 12.047139,  1.001139,  3.460622 )
  WF centre  108  ( 12.053321,  0.979891,  3.333525 )
  WF centre  109  ( 12.058574,  1.016954,  3.333112 )
  WF centre  110  ( 10.326358,  3.984509, -0.110473 )
  WF centre  111  ( 10.367866,  3.975090,  0.012660 )
  WF centre  112  ( 10.332237,  4.003298,  0.023517 )
  WF centre  113  ( 10.259869,  3.940475,  3.431056 )
  WF centre  114  ( 10.294208,  3.919120,  3.313437 )
  WF centre  115  ( 10.259425,  3.976582,  3.292331 )
  WF centre  116  (  8.610478,  6.951429, -0.108800 )
  WF centre  117  (  8.612703,  6.954579,  0.016751 )
  WF centre  118  (  8.641630,  6.985907,  0.020414 )
  WF centre  119  (  8.537616,  6.915821,  3.428794 )
  WF centre  120  (  8.548737,  6.906584,  3.294500 )
  WF centre  121  (  8.561171,  6.949685,  3.309768 )
  WF centre  122  (  6.892080,  9.924789, -0.067210 )
  WF centre  123  (  6.892135,  9.924120,  0.060267 )
  WF centre  124  (  6.892087,  9.958873,  0.066669 )
  WF centre  125  (  6.892079,  9.929716,  3.460513 )
  WF centre  126  (  6.892135,  9.928348,  3.332824 )
  WF centre  127  (  6.892087,  9.956605,  3.333614 )
  WF centre  128  (  3.397951,  9.918137, -0.010416 )
  WF centre  129  (  3.409680,  9.904584,  0.119911 )
  WF centre  130  (  3.402994,  9.946386,  0.120685 )
  WF centre  131  (  3.488183,  9.969492,  3.534995 )
  WF centre  132  (  3.484741,  9.946895,  3.384496 )
  WF centre  133  (  3.490138,  9.998441,  3.393977 )
  WF centre  134  ( -0.000011,  9.929599,  0.122384 )
  WF centre  135  (  0.000011,  9.888522,  0.180098 )
  WF centre  136  ( -0.000026,  9.950216,  0.224605 )
  WF centre  137  ( -0.000008,  9.762442,  4.079080 )
  WF centre  138  (  0.000033, 10.167507,  3.540691 )
  WF centre  139  ( -0.000070, 10.262718,  3.541749 )
  WF centre  140  ( -3.397950,  9.918137, -0.010413 )
  WF centre  141  ( -3.409623,  9.904736,  0.119914 )
  WF centre  142  ( -3.403006,  9.946469,  0.120696 )
  WF centre  143  ( -3.488189,  9.969486,  3.534990 )
  WF centre  144  ( -3.484677,  9.947050,  3.384501 )
  WF centre  145  ( -3.490144,  9.998537,  3.393956 )
  WF centre  146  (  6.891670,  4.241305,  0.031720 )
  WF centre  147  (  6.892258,  3.962588, -0.062372 )
  WF centre  148  (  6.892066,  3.980277, -0.060418 )
  WF centre  149  (  6.890161,  4.269378,  3.180023 )
  WF centre  150  (  6.893962,  3.966213,  3.297415 )
  WF centre  151  (  6.891828,  3.974947,  3.294515 )
  WF centre  152  (  5.173769,  6.951270, -0.108760 )
  WF centre  153  (  5.171684,  6.954445,  0.016916 )
  WF centre  154  (  5.142466,  6.986168,  0.020362 )
  WF centre  155  (  5.246706,  6.915361,  3.428643 )
  WF centre  156  (  5.235688,  6.906443,  3.294306 )
  WF centre  157  (  5.222839,  6.950240,  3.309883 )
  WF centre  158  (  1.709426,  6.970035,  0.120809 )
  WF centre  159  (  1.702955,  6.955193,  0.214696 )
  WF centre  160  (  1.692835,  7.002519,  0.191199 )
  WF centre  161  (  0.005965,  7.952586,  6.528563 )
  WF centre  162  (  1.561137,  7.055383,  4.078987 )
  WF centre  163  (  1.918633,  6.849113,  3.540726 )
  WF centre  164  (  3.458025,  3.984438, -0.110362 )
  WF centre  165  (  3.416295,  3.975085,  0.012651 )
  WF centre  166  (  3.452067,  4.003283,  0.023611 )
  WF centre  167  (  3.524596,  3.940549,  3.430902 )
  WF centre  168  (  3.489974,  3.919118,  3.313444 )
  WF centre  169  (  3.524781,  3.976406,  3.292245 )
  WF centre  170  (  0.000013,  4.032238, -0.010482 )
  WF centre  171  ( -0.000005,  4.010508,  0.121231 )
  WF centre  172  (  0.000225,  4.042649,  0.119445 )
  WF centre  173  (  0.000004,  3.928936,  3.534654 )
  WF centre  174  ( -0.000000,  3.902132,  3.398560 )
  WF centre  175  (  0.000239,  3.963240,  3.380332 )
  WF centre  176  ( -1.709219,  6.970163,  0.120882 )
  WF centre  177  ( -1.702987,  6.955276,  0.214604 )
  WF centre  178  ( -1.692829,  7.002476,  0.191166 )
  WF centre  179  ( -1.562200,  7.055896,  4.079795 )
  WF centre  180  ( -1.979001,  6.821218,  3.541552 )
  WF centre  181  ( -1.930636,  6.840258,  3.540854 )
 ------------------------------------------------------------------------------
 

 Wannier centres written to file 1Fe_centreconf.up_centres.xyz
  
  Omega Invariant:   1-s^2 =   374.477969560 (Ang^2)
                   -2log s =   385.100637722 (Ang^2)
                    acos^2 =   381.439628565 (Ang^2)
 Time for wannierise           45.635 (sec)

 Writing checkpoint file 1Fe_centreconf.up.chk... done

 *---------------------------------------------------------------------------*
 |                               PLOTTING                                    |
 *---------------------------------------------------------------------------*
 
   19 lattice points in Wigner-Seitz supercell:

      vector  -2  -2   0   degeneracy:  2
      vector  -2  -1   0   degeneracy:  1
      vector  -2   0   0   degeneracy:  2
      vector  -1  -2   0   degeneracy:  1
      vector  -1  -1   0   degeneracy:  1
      vector  -1   0   0   degeneracy:  1
      vector  -1   1   0   degeneracy:  1
      vector   0  -2   0   degeneracy:  2
      vector   0  -1   0   degeneracy:  1
      vector   0   0   0   degeneracy:  1
      vector   0   1   0   degeneracy:  1
      vector   0   2   0   degeneracy:  2
      vector   1  -1   0   degeneracy:  1
      vector   1   0   0   degeneracy:  1
      vector   1   1   0   degeneracy:  1
      vector   1   2   0   degeneracy:  1
      vector   2   0   0   degeneracy:  2
      vector   2   1   0   degeneracy:  1
      vector   2   2   0   degeneracy:  2
  tot =       16.000
  mp_grid product =           16
 
 Calculating interpolated band-structure
 
 Time to calculate interpolated band structure      23.277 (sec)
 
 Time for plotting             26.659 (sec)
 Total Execution Time         447.434 (sec)

 *===========================================================================*
 |                             TIMING INFORMATION                            |
 *===========================================================================*
 |    Tag                                                Ncalls      Time (s)|
 |---------------------------------------------------------------------------|
 |kmesh: get                                        :         1         0.022|
 |overlap: allocate                                 :         1         0.007|
 |overlap: read                                     :         1        63.145|
 |dis: main                                         :         1       311.870|
 |wann: main                                        :         1        45.635|
 |plot: main                                        :         1        26.659|
 *---------------------------------------------------------------------------*
 
 All done: wannier90 exiting
