 
             +---------------------------------------------------+
             |                                                   |
             |                   WANNIER90                       |
             |                                                   |
             +---------------------------------------------------+
             |                                                   |
             |        Welcome to the Maximally-Localized         |
             |        Generalized Wannier Functions code         |
             |            http://www.wannier.org                 |
             |                                                   |
             |                                                   |
             |  Wannier90 Developer Group:                       |
             |    Giovanni Pizzi    (EPFL)                       |
             |    Valerio Vitale    (Cambridge)                  |
             |    David Vanderbilt  (Rutgers University)         |
             |    Nicola Marzari    (EPFL)                       |
             |    Ivo Souza         (Universidad del Pais Vasco) |
             |    Arash A. Mostofi  (Imperial College London)    |
             |    Jonathan R. Yates (University of Oxford)       |
             |                                                   |
             |  For the full list of Wannier90 3.x authors,      |
             |  please check the code documentation and the      |
             |  README on the GitHub page of the code            |
             |                                                   |
             |                                                   |
             |  Please cite                                      |
             |                                                   |
             |  [ref] "Wannier90 as a community code:            |
             |        new features and applications",            |
             |        G. Pizzi et al., J. Phys. Cond. Matt. 32,  |
             |        165902 (2020).                             |
             |        http://doi.org/10.1088/1361-648X/ab51ff    |
             |                                                   |
             |  in any publications arising from the use of      |
             |  this code. For the method please cite            |
             |                                                   |
             |  [ref] "Maximally Localized Generalised Wannier   |
             |         Functions for Composite Energy Bands"     |
             |         N. Marzari and D. Vanderbilt              |
             |         Phys. Rev. B 56 12847 (1997)              |
             |                                                   |
             |  [ref] "Maximally Localized Wannier Functions     |
             |         for Entangled Energy Bands"               |
             |         I. Souza, N. Marzari and D. Vanderbilt    |
             |         Phys. Rev. B 65 035109 (2001)             |
             |                                                   |
             |                                                   |
             | Copyright (c) 1996-2020                           |
             |        The Wannier90 Developer Group and          |
             |        individual contributors                    |
             |                                                   |
             |      Release: 3.1.0        5th March    2020      |
             |                                                   |
             | This program is free software; you can            |
             | redistribute it and/or modify it under the terms  |
             | of the GNU General Public License as published by |
             | the Free Software Foundation; either version 2 of |
             | the License, or (at your option) any later version|
             |                                                   |
             | This program is distributed in the hope that it   |
             | will be useful, but WITHOUT ANY WARRANTY; without |
             | even the implied warranty of MERCHANTABILITY or   |
             | FITNESS FOR A PARTICULAR PURPOSE. See the GNU     |
             | General Public License for more details.          |
             |                                                   |
             | You should have received a copy of the GNU General|
             | Public License along with this program; if not,   |
             | write to the Free Software Foundation, Inc.,      |
             | 675 Mass Ave, Cambridge, MA 02139, USA.           |
             |                                                   |
             +---------------------------------------------------+
             |    Execution started on 11Jul2023 at 19:30:43     |
             +---------------------------------------------------+
 
 ******************************************************************************
 * -> Using CODATA 2006 constant values                                       *
 *    (http://physics.nist.gov/cuu/Constants/index.html)                      *
 * -> Using Bohr value from CODATA                                            *
 ******************************************************************************
 

 Running in parallel on  80 CPUs

 
                                    ------
                                    SYSTEM
                                    ------
 
                              Lattice Vectors (Ang)
                    a_1    13.784171   0.000000   0.000000
                    a_2    -6.892085  11.937442   0.000000
                    a_3     0.000000   0.000000  23.631430
 
                   Unit Cell Volume:    3888.49848  (Ang^3)
 
                        Reciprocal-Space Vectors (Ang^-1)
                    b_1     0.455826   0.263171   0.000000
                    b_2     0.000000   0.526343   0.000000
                    b_3     0.000000   0.000000   0.265883
  
 *----------------------------------------------------------------------------*
 |   Site       Fractional Coordinate          Cartesian Coordinate (Ang)     |
 +----------------------------------------------------------------------------+
 | Cr   1   0.33333   0.66667   0.16685   |   -0.00000   7.95829   3.94299    |
 | Nb   1   0.00000   0.00000   0.07170   |    0.00000   0.00000   1.69430    |
 | Nb   2   0.25189   0.00024   0.07201   |    3.47040   0.00287   1.70173    |
 | Nb   3   0.50228   0.00457   0.07084   |    6.89209   0.05454   1.67414    |
 | Nb   4   0.74835   0.00024   0.07201   |   10.31377   0.00287   1.70173    |
 | Nb   5   0.74850   0.25150   0.06828   |    8.58404   3.00230   1.61367    |
 | Nb   6   0.74850   0.49699   0.06828   |    6.89209   5.93284   1.61367    |
 | Nb   7   0.74835   0.74811   0.07201   |    5.15937   8.93055   1.70173    |
 | Nb   8   0.50032   0.75016   0.07859   |    1.72635   8.95500   1.85709    |
 | Nb   9   0.24984   0.75016   0.07859   |   -1.72635   8.95500   1.85709    |
 | Nb  10  -0.00024   0.74811   0.07201   |   -5.15937   8.93055   1.70173    |
 | Nb  11   0.50301   0.25150   0.06828   |    5.20014   3.00230   1.61367    |
 | Nb  12   0.50228   0.49772   0.07084   |    3.49327   5.94145   1.67414    |
 | Nb  13   0.24984   0.49968   0.07859   |   -0.00000   5.96488   1.85709    |
 | Nb  14   0.25189   0.25165   0.07201   |    1.73769   3.00402   1.70173    |
 | Nb  15  -0.00024   0.25165   0.07201   |   -1.73769   3.00402   1.70173    |
 | Nb  16  -0.00457   0.49772   0.07084   |   -3.49327   5.94145   1.67414    |
 | Se   1   0.16721   0.08361   0.00063   |    1.72866   0.99804   0.01486    |
 | Se   2   0.16690   0.08345   0.14290   |    1.72538   0.99615   3.37693    |
 | Se   3   0.41544   0.08143  -0.00156   |    5.16530   0.97207  -0.03681    |
 | Se   4   0.41911   0.08928   0.14188   |    5.16174   1.06572   3.35289    |
 | Se   5   0.66599   0.08143  -0.00156   |    8.61887   0.97207  -0.03681    |
 | Se   6   0.67017   0.08928   0.14188   |    8.62243   1.06572   3.35289    |
 | Se   7   0.91639   0.08361   0.00063   |   12.05551   0.99804   0.01486    |
 | Se   8   0.91655   0.08345   0.14290   |   12.05879   0.99615   3.37693    |
 | Se   9   0.91857   0.33401  -0.00156   |   10.35968   3.98724  -0.03681    |
 | Se  10   0.91072   0.32983   0.14188   |   10.28036   3.93734   3.35289    |
 | Se  11   0.91857   0.58456  -0.00156   |    8.63289   6.97813  -0.03681    |
 | Se  12   0.91072   0.58089   0.14188   |    8.55002   6.93438   3.35289    |
 | Se  13   0.91639   0.83279   0.00063   |    6.89209   9.94136   0.01486    |
 | Se  14   0.91655   0.83310   0.14290   |    6.89209   9.94514   3.37693    |
 | Se  15   0.66220   0.83110   0.00298   |    3.39989   9.92122   0.07043    |
 | Se  16   0.67172   0.83586   0.14547   |    3.49824   9.97800   3.43758    |
 | Se  17   0.41489   0.82979   0.00560   |    0.00000   9.90552   0.13226    |
 | Se  18   0.42825   0.85651   0.14992   |    0.00000  10.22450   3.54287    |
 | Se  19   0.16890   0.83110   0.00298   |   -3.39989   9.92122   0.07043    |
 | Se  20   0.16414   0.83586   0.14547   |   -3.49824   9.97800   3.43758    |
 | Se  21   0.66667   0.33333  -0.00432   |    6.89209   3.97915  -0.10210    |
 | Se  22   0.66667   0.33333   0.14105   |    6.89209   3.97915   3.33317    |
 | Se  23   0.66599   0.58456  -0.00156   |    5.15128   6.97813  -0.03681    |
 | Se  24   0.67017   0.58089   0.14188   |    5.23415   6.93438   3.35289    |
 | Se  25   0.41489   0.58511   0.00560   |    1.68635   6.98468   0.13226    |
 | Se  26   0.42825   0.57175   0.14992   |    1.96259   6.82519   3.54287    |
 | Se  27   0.41544   0.33401  -0.00156   |    3.42449   3.98724  -0.03681    |
 | Se  28   0.41911   0.32983   0.14188   |    3.50381   3.93734   3.35289    |
 | Se  29   0.16890   0.33780   0.00298   |    0.00000   4.03244   0.07043    |
 | Se  30   0.16414   0.32828   0.14547   |    0.00000   3.91888   3.43758    |
 | Se  31   0.17021   0.58511   0.00560   |   -1.68635   6.98468   0.13226    |
 | Se  32   0.14349   0.57175   0.14992   |   -1.96259   6.82519   3.54287    |
 *----------------------------------------------------------------------------*
                                -----------
                                PROJECTIONS
                                -----------
  
 +----------------------------------------------------------------------------+
 |     Frac. Coord.   l mr  r        z-axis               x-axis          Z/a |
 +----------------------------------------------------------------------------+
 |  0.33  0.67  0.17  2  1  1  0.000  0.000  1.000  1.000  0.000  0.000   1.0 |
 |  0.33  0.67  0.17  2  2  1  0.000  0.000  1.000  1.000  0.000  0.000   1.0 |
 |  0.33  0.67  0.17  2  3  1  0.000  0.000  1.000  1.000  0.000  0.000   1.0 |
 |  0.33  0.67  0.17  2  4  1  0.000  0.000  1.000  1.000  0.000  0.000   1.0 |
 |  0.33  0.67  0.17  2  5  1  0.000  0.000  1.000  1.000  0.000  0.000   1.0 |
 |  0.00  0.00  0.07  2  1  1  0.000  0.000  1.000  1.000  0.000  0.000   1.0 |
 |  0.00  0.00  0.07  2  2  1  0.000  0.000  1.000  1.000  0.000  0.000   1.0 |
 |  0.00  0.00  0.07  2  3  1  0.000  0.000  1.000  1.000  0.000  0.000   1.0 |
 |  0.00  0.00  0.07  2  4  1  0.000  0.000  1.000  1.000  0.000  0.000   1.0 |
 |  0.00  0.00  0.07  2  5  1  0.000  0.000  1.000  1.000  0.000  0.000   1.0 |
 |  0.25  0.00  0.07  2  1  1  0.000  0.000  1.000  1.000  0.000  0.000   1.0 |
 |  0.25  0.00  0.07  2  2  1  0.000  0.000  1.000  1.000  0.000  0.000   1.0 |
 |  0.25  0.00  0.07  2  3  1  0.000  0.000  1.000  1.000  0.000  0.000   1.0 |
 |  0.25  0.00  0.07  2  4  1  0.000  0.000  1.000  1.000  0.000  0.000   1.0 |
 |  0.25  0.00  0.07  2  5  1  0.000  0.000  1.000  1.000  0.000  0.000   1.0 |
 |  0.50  0.00  0.07  2  1  1  0.000  0.000  1.000  1.000  0.000  0.000   1.0 |
 |  0.50  0.00  0.07  2  2  1  0.000  0.000  1.000  1.000  0.000  0.000   1.0 |
 |  0.50  0.00  0.07  2  3  1  0.000  0.000  1.000  1.000  0.000  0.000   1.0 |
 |  0.50  0.00  0.07  2  4  1  0.000  0.000  1.000  1.000  0.000  0.000   1.0 |
 |  0.50  0.00  0.07  2  5  1  0.000  0.000  1.000  1.000  0.000  0.000   1.0 |
 |  0.75  0.00  0.07  2  1  1  0.000  0.000  1.000  1.000  0.000  0.000   1.0 |
 |  0.75  0.00  0.07  2  2  1  0.000  0.000  1.000  1.000  0.000  0.000   1.0 |
 |  0.75  0.00  0.07  2  3  1  0.000  0.000  1.000  1.000  0.000  0.000   1.0 |
 |  0.75  0.00  0.07  2  4  1  0.000  0.000  1.000  1.000  0.000  0.000   1.0 |
 |  0.75  0.00  0.07  2  5  1  0.000  0.000  1.000  1.000  0.000  0.000   1.0 |
 |  0.75  0.25  0.07  2  1  1  0.000  0.000  1.000  1.000  0.000  0.000   1.0 |
 |  0.75  0.25  0.07  2  2  1  0.000  0.000  1.000  1.000  0.000  0.000   1.0 |
 |  0.75  0.25  0.07  2  3  1  0.000  0.000  1.000  1.000  0.000  0.000   1.0 |
 |  0.75  0.25  0.07  2  4  1  0.000  0.000  1.000  1.000  0.000  0.000   1.0 |
 |  0.75  0.25  0.07  2  5  1  0.000  0.000  1.000  1.000  0.000  0.000   1.0 |
 |  0.75  0.50  0.07  2  1  1  0.000  0.000  1.000  1.000  0.000  0.000   1.0 |
 |  0.75  0.50  0.07  2  2  1  0.000  0.000  1.000  1.000  0.000  0.000   1.0 |
 |  0.75  0.50  0.07  2  3  1  0.000  0.000  1.000  1.000  0.000  0.000   1.0 |
 |  0.75  0.50  0.07  2  4  1  0.000  0.000  1.000  1.000  0.000  0.000   1.0 |
 |  0.75  0.50  0.07  2  5  1  0.000  0.000  1.000  1.000  0.000  0.000   1.0 |
 |  0.75  0.75  0.07  2  1  1  0.000  0.000  1.000  1.000  0.000  0.000   1.0 |
 |  0.75  0.75  0.07  2  2  1  0.000  0.000  1.000  1.000  0.000  0.000   1.0 |
 |  0.75  0.75  0.07  2  3  1  0.000  0.000  1.000  1.000  0.000  0.000   1.0 |
 |  0.75  0.75  0.07  2  4  1  0.000  0.000  1.000  1.000  0.000  0.000   1.0 |
 |  0.75  0.75  0.07  2  5  1  0.000  0.000  1.000  1.000  0.000  0.000   1.0 |
 |  0.50  0.75  0.08  2  1  1  0.000  0.000  1.000  1.000  0.000  0.000   1.0 |
 |  0.50  0.75  0.08  2  2  1  0.000  0.000  1.000  1.000  0.000  0.000   1.0 |
 |  0.50  0.75  0.08  2  3  1  0.000  0.000  1.000  1.000  0.000  0.000   1.0 |
 |  0.50  0.75  0.08  2  4  1  0.000  0.000  1.000  1.000  0.000  0.000   1.0 |
 |  0.50  0.75  0.08  2  5  1  0.000  0.000  1.000  1.000  0.000  0.000   1.0 |
 |  0.25  0.75  0.08  2  1  1  0.000  0.000  1.000  1.000  0.000  0.000   1.0 |
 |  0.25  0.75  0.08  2  2  1  0.000  0.000  1.000  1.000  0.000  0.000   1.0 |
 |  0.25  0.75  0.08  2  3  1  0.000  0.000  1.000  1.000  0.000  0.000   1.0 |
 |  0.25  0.75  0.08  2  4  1  0.000  0.000  1.000  1.000  0.000  0.000   1.0 |
 |  0.25  0.75  0.08  2  5  1  0.000  0.000  1.000  1.000  0.000  0.000   1.0 |
 | -0.00  0.75  0.07  2  1  1  0.000  0.000  1.000  1.000  0.000  0.000   1.0 |
 | -0.00  0.75  0.07  2  2  1  0.000  0.000  1.000  1.000  0.000  0.000   1.0 |
 | -0.00  0.75  0.07  2  3  1  0.000  0.000  1.000  1.000  0.000  0.000   1.0 |
 | -0.00  0.75  0.07  2  4  1  0.000  0.000  1.000  1.000  0.000  0.000   1.0 |
 | -0.00  0.75  0.07  2  5  1  0.000  0.000  1.000  1.000  0.000  0.000   1.0 |
 |  0.50  0.25  0.07  2  1  1  0.000  0.000  1.000  1.000  0.000  0.000   1.0 |
 |  0.50  0.25  0.07  2  2  1  0.000  0.000  1.000  1.000  0.000  0.000   1.0 |
 |  0.50  0.25  0.07  2  3  1  0.000  0.000  1.000  1.000  0.000  0.000   1.0 |
 |  0.50  0.25  0.07  2  4  1  0.000  0.000  1.000  1.000  0.000  0.000   1.0 |
 |  0.50  0.25  0.07  2  5  1  0.000  0.000  1.000  1.000  0.000  0.000   1.0 |
 |  0.50  0.50  0.07  2  1  1  0.000  0.000  1.000  1.000  0.000  0.000   1.0 |
 |  0.50  0.50  0.07  2  2  1  0.000  0.000  1.000  1.000  0.000  0.000   1.0 |
 |  0.50  0.50  0.07  2  3  1  0.000  0.000  1.000  1.000  0.000  0.000   1.0 |
 |  0.50  0.50  0.07  2  4  1  0.000  0.000  1.000  1.000  0.000  0.000   1.0 |
 |  0.50  0.50  0.07  2  5  1  0.000  0.000  1.000  1.000  0.000  0.000   1.0 |
 |  0.25  0.50  0.08  2  1  1  0.000  0.000  1.000  1.000  0.000  0.000   1.0 |
 |  0.25  0.50  0.08  2  2  1  0.000  0.000  1.000  1.000  0.000  0.000   1.0 |
 |  0.25  0.50  0.08  2  3  1  0.000  0.000  1.000  1.000  0.000  0.000   1.0 |
 |  0.25  0.50  0.08  2  4  1  0.000  0.000  1.000  1.000  0.000  0.000   1.0 |
 |  0.25  0.50  0.08  2  5  1  0.000  0.000  1.000  1.000  0.000  0.000   1.0 |
 |  0.25  0.25  0.07  2  1  1  0.000  0.000  1.000  1.000  0.000  0.000   1.0 |
 |  0.25  0.25  0.07  2  2  1  0.000  0.000  1.000  1.000  0.000  0.000   1.0 |
 |  0.25  0.25  0.07  2  3  1  0.000  0.000  1.000  1.000  0.000  0.000   1.0 |
 |  0.25  0.25  0.07  2  4  1  0.000  0.000  1.000  1.000  0.000  0.000   1.0 |
 |  0.25  0.25  0.07  2  5  1  0.000  0.000  1.000  1.000  0.000  0.000   1.0 |
 | -0.00  0.25  0.07  2  1  1  0.000  0.000  1.000  1.000  0.000  0.000   1.0 |
 | -0.00  0.25  0.07  2  2  1  0.000  0.000  1.000  1.000  0.000  0.000   1.0 |
 | -0.00  0.25  0.07  2  3  1  0.000  0.000  1.000  1.000  0.000  0.000   1.0 |
 | -0.00  0.25  0.07  2  4  1  0.000  0.000  1.000  1.000  0.000  0.000   1.0 |
 | -0.00  0.25  0.07  2  5  1  0.000  0.000  1.000  1.000  0.000  0.000   1.0 |
 | -0.00  0.50  0.07  2  1  1  0.000  0.000  1.000  1.000  0.000  0.000   1.0 |
 | -0.00  0.50  0.07  2  2  1  0.000  0.000  1.000  1.000  0.000  0.000   1.0 |
 | -0.00  0.50  0.07  2  3  1  0.000  0.000  1.000  1.000  0.000  0.000   1.0 |
 | -0.00  0.50  0.07  2  4  1  0.000  0.000  1.000  1.000  0.000  0.000   1.0 |
 | -0.00  0.50  0.07  2  5  1  0.000  0.000  1.000  1.000  0.000  0.000   1.0 |
 |  0.17  0.08  0.00  1  1  1  0.000  0.000  1.000  1.000  0.000  0.000   1.0 |
 |  0.17  0.08  0.00  1  2  1  0.000  0.000  1.000  1.000  0.000  0.000   1.0 |
 |  0.17  0.08  0.00  1  3  1  0.000  0.000  1.000  1.000  0.000  0.000   1.0 |
 |  0.17  0.08  0.14  1  1  1  0.000  0.000  1.000  1.000  0.000  0.000   1.0 |
 |  0.17  0.08  0.14  1  2  1  0.000  0.000  1.000  1.000  0.000  0.000   1.0 |
 |  0.17  0.08  0.14  1  3  1  0.000  0.000  1.000  1.000  0.000  0.000   1.0 |
 |  0.42  0.08 -0.00  1  1  1  0.000  0.000  1.000  1.000  0.000  0.000   1.0 |
 |  0.42  0.08 -0.00  1  2  1  0.000  0.000  1.000  1.000  0.000  0.000   1.0 |
 |  0.42  0.08 -0.00  1  3  1  0.000  0.000  1.000  1.000  0.000  0.000   1.0 |
 |  0.42  0.09  0.14  1  1  1  0.000  0.000  1.000  1.000  0.000  0.000   1.0 |
 |  0.42  0.09  0.14  1  2  1  0.000  0.000  1.000  1.000  0.000  0.000   1.0 |
 |  0.42  0.09  0.14  1  3  1  0.000  0.000  1.000  1.000  0.000  0.000   1.0 |
 |  0.67  0.08 -0.00  1  1  1  0.000  0.000  1.000  1.000  0.000  0.000   1.0 |
 |  0.67  0.08 -0.00  1  2  1  0.000  0.000  1.000  1.000  0.000  0.000   1.0 |
 |  0.67  0.08 -0.00  1  3  1  0.000  0.000  1.000  1.000  0.000  0.000   1.0 |
 |  0.67  0.09  0.14  1  1  1  0.000  0.000  1.000  1.000  0.000  0.000   1.0 |
 |  0.67  0.09  0.14  1  2  1  0.000  0.000  1.000  1.000  0.000  0.000   1.0 |
 |  0.67  0.09  0.14  1  3  1  0.000  0.000  1.000  1.000  0.000  0.000   1.0 |
 |  0.92  0.08  0.00  1  1  1  0.000  0.000  1.000  1.000  0.000  0.000   1.0 |
 |  0.92  0.08  0.00  1  2  1  0.000  0.000  1.000  1.000  0.000  0.000   1.0 |
 |  0.92  0.08  0.00  1  3  1  0.000  0.000  1.000  1.000  0.000  0.000   1.0 |
 |  0.92  0.08  0.14  1  1  1  0.000  0.000  1.000  1.000  0.000  0.000   1.0 |
 |  0.92  0.08  0.14  1  2  1  0.000  0.000  1.000  1.000  0.000  0.000   1.0 |
 |  0.92  0.08  0.14  1  3  1  0.000  0.000  1.000  1.000  0.000  0.000   1.0 |
 |  0.92  0.33 -0.00  1  1  1  0.000  0.000  1.000  1.000  0.000  0.000   1.0 |
 |  0.92  0.33 -0.00  1  2  1  0.000  0.000  1.000  1.000  0.000  0.000   1.0 |
 |  0.92  0.33 -0.00  1  3  1  0.000  0.000  1.000  1.000  0.000  0.000   1.0 |
 |  0.91  0.33  0.14  1  1  1  0.000  0.000  1.000  1.000  0.000  0.000   1.0 |
 |  0.91  0.33  0.14  1  2  1  0.000  0.000  1.000  1.000  0.000  0.000   1.0 |
 |  0.91  0.33  0.14  1  3  1  0.000  0.000  1.000  1.000  0.000  0.000   1.0 |
 |  0.92  0.58 -0.00  1  1  1  0.000  0.000  1.000  1.000  0.000  0.000   1.0 |
 |  0.92  0.58 -0.00  1  2  1  0.000  0.000  1.000  1.000  0.000  0.000   1.0 |
 |  0.92  0.58 -0.00  1  3  1  0.000  0.000  1.000  1.000  0.000  0.000   1.0 |
 |  0.91  0.58  0.14  1  1  1  0.000  0.000  1.000  1.000  0.000  0.000   1.0 |
 |  0.91  0.58  0.14  1  2  1  0.000  0.000  1.000  1.000  0.000  0.000   1.0 |
 |  0.91  0.58  0.14  1  3  1  0.000  0.000  1.000  1.000  0.000  0.000   1.0 |
 |  0.92  0.83  0.00  1  1  1  0.000  0.000  1.000  1.000  0.000  0.000   1.0 |
 |  0.92  0.83  0.00  1  2  1  0.000  0.000  1.000  1.000  0.000  0.000   1.0 |
 |  0.92  0.83  0.00  1  3  1  0.000  0.000  1.000  1.000  0.000  0.000   1.0 |
 |  0.92  0.83  0.14  1  1  1  0.000  0.000  1.000  1.000  0.000  0.000   1.0 |
 |  0.92  0.83  0.14  1  2  1  0.000  0.000  1.000  1.000  0.000  0.000   1.0 |
 |  0.92  0.83  0.14  1  3  1  0.000  0.000  1.000  1.000  0.000  0.000   1.0 |
 |  0.66  0.83  0.00  1  1  1  0.000  0.000  1.000  1.000  0.000  0.000   1.0 |
 |  0.66  0.83  0.00  1  2  1  0.000  0.000  1.000  1.000  0.000  0.000   1.0 |
 |  0.66  0.83  0.00  1  3  1  0.000  0.000  1.000  1.000  0.000  0.000   1.0 |
 |  0.67  0.84  0.15  1  1  1  0.000  0.000  1.000  1.000  0.000  0.000   1.0 |
 |  0.67  0.84  0.15  1  2  1  0.000  0.000  1.000  1.000  0.000  0.000   1.0 |
 |  0.67  0.84  0.15  1  3  1  0.000  0.000  1.000  1.000  0.000  0.000   1.0 |
 |  0.41  0.83  0.01  1  1  1  0.000  0.000  1.000  1.000  0.000  0.000   1.0 |
 |  0.41  0.83  0.01  1  2  1  0.000  0.000  1.000  1.000  0.000  0.000   1.0 |
 |  0.41  0.83  0.01  1  3  1  0.000  0.000  1.000  1.000  0.000  0.000   1.0 |
 |  0.43  0.86  0.15  1  1  1  0.000  0.000  1.000  1.000  0.000  0.000   1.0 |
 |  0.43  0.86  0.15  1  2  1  0.000  0.000  1.000  1.000  0.000  0.000   1.0 |
 |  0.43  0.86  0.15  1  3  1  0.000  0.000  1.000  1.000  0.000  0.000   1.0 |
 |  0.17  0.83  0.00  1  1  1  0.000  0.000  1.000  1.000  0.000  0.000   1.0 |
 |  0.17  0.83  0.00  1  2  1  0.000  0.000  1.000  1.000  0.000  0.000   1.0 |
 |  0.17  0.83  0.00  1  3  1  0.000  0.000  1.000  1.000  0.000  0.000   1.0 |
 |  0.16  0.84  0.15  1  1  1  0.000  0.000  1.000  1.000  0.000  0.000   1.0 |
 |  0.16  0.84  0.15  1  2  1  0.000  0.000  1.000  1.000  0.000  0.000   1.0 |
 |  0.16  0.84  0.15  1  3  1  0.000  0.000  1.000  1.000  0.000  0.000   1.0 |
 |  0.67  0.33 -0.00  1  1  1  0.000  0.000  1.000  1.000  0.000  0.000   1.0 |
 |  0.67  0.33 -0.00  1  2  1  0.000  0.000  1.000  1.000  0.000  0.000   1.0 |
 |  0.67  0.33 -0.00  1  3  1  0.000  0.000  1.000  1.000  0.000  0.000   1.0 |
 |  0.67  0.33  0.14  1  1  1  0.000  0.000  1.000  1.000  0.000  0.000   1.0 |
 |  0.67  0.33  0.14  1  2  1  0.000  0.000  1.000  1.000  0.000  0.000   1.0 |
 |  0.67  0.33  0.14  1  3  1  0.000  0.000  1.000  1.000  0.000  0.000   1.0 |
 |  0.67  0.58 -0.00  1  1  1  0.000  0.000  1.000  1.000  0.000  0.000   1.0 |
 |  0.67  0.58 -0.00  1  2  1  0.000  0.000  1.000  1.000  0.000  0.000   1.0 |
 |  0.67  0.58 -0.00  1  3  1  0.000  0.000  1.000  1.000  0.000  0.000   1.0 |
 |  0.67  0.58  0.14  1  1  1  0.000  0.000  1.000  1.000  0.000  0.000   1.0 |
 |  0.67  0.58  0.14  1  2  1  0.000  0.000  1.000  1.000  0.000  0.000   1.0 |
 |  0.67  0.58  0.14  1  3  1  0.000  0.000  1.000  1.000  0.000  0.000   1.0 |
 |  0.41  0.59  0.01  1  1  1  0.000  0.000  1.000  1.000  0.000  0.000   1.0 |
 |  0.41  0.59  0.01  1  2  1  0.000  0.000  1.000  1.000  0.000  0.000   1.0 |
 |  0.41  0.59  0.01  1  3  1  0.000  0.000  1.000  1.000  0.000  0.000   1.0 |
 |  0.43  0.57  0.15  1  1  1  0.000  0.000  1.000  1.000  0.000  0.000   1.0 |
 |  0.43  0.57  0.15  1  2  1  0.000  0.000  1.000  1.000  0.000  0.000   1.0 |
 |  0.43  0.57  0.15  1  3  1  0.000  0.000  1.000  1.000  0.000  0.000   1.0 |
 |  0.42  0.33 -0.00  1  1  1  0.000  0.000  1.000  1.000  0.000  0.000   1.0 |
 |  0.42  0.33 -0.00  1  2  1  0.000  0.000  1.000  1.000  0.000  0.000   1.0 |
 |  0.42  0.33 -0.00  1  3  1  0.000  0.000  1.000  1.000  0.000  0.000   1.0 |
 |  0.42  0.33  0.14  1  1  1  0.000  0.000  1.000  1.000  0.000  0.000   1.0 |
 |  0.42  0.33  0.14  1  2  1  0.000  0.000  1.000  1.000  0.000  0.000   1.0 |
 |  0.42  0.33  0.14  1  3  1  0.000  0.000  1.000  1.000  0.000  0.000   1.0 |
 |  0.17  0.34  0.00  1  1  1  0.000  0.000  1.000  1.000  0.000  0.000   1.0 |
 |  0.17  0.34  0.00  1  2  1  0.000  0.000  1.000  1.000  0.000  0.000   1.0 |
 |  0.17  0.34  0.00  1  3  1  0.000  0.000  1.000  1.000  0.000  0.000   1.0 |
 |  0.16  0.33  0.15  1  1  1  0.000  0.000  1.000  1.000  0.000  0.000   1.0 |
 |  0.16  0.33  0.15  1  2  1  0.000  0.000  1.000  1.000  0.000  0.000   1.0 |
 |  0.16  0.33  0.15  1  3  1  0.000  0.000  1.000  1.000  0.000  0.000   1.0 |
 |  0.17  0.59  0.01  1  1  1  0.000  0.000  1.000  1.000  0.000  0.000   1.0 |
 |  0.17  0.59  0.01  1  2  1  0.000  0.000  1.000  1.000  0.000  0.000   1.0 |
 |  0.17  0.59  0.01  1  3  1  0.000  0.000  1.000  1.000  0.000  0.000   1.0 |
 |  0.14  0.57  0.15  1  1  1  0.000  0.000  1.000  1.000  0.000  0.000   1.0 |
 |  0.14  0.57  0.15  1  2  1  0.000  0.000  1.000  1.000  0.000  0.000   1.0 |
 |  0.14  0.57  0.15  1  3  1  0.000  0.000  1.000  1.000  0.000  0.000   1.0 |
 +----------------------------------------------------------------------------+
  
                                ------------
                                K-POINT GRID
                                ------------
  
             Grid size =  4 x  4 x  1      Total points =   16
  
 *----------------------------------------------------------------------------*
 | k-point      Fractional Coordinate        Cartesian Coordinate (Ang^-1)    |
 +----------------------------------------------------------------------------+
 |     1    0.00000   0.00000   0.00000   |    0.00000   0.00000   0.00000    |
 |     2    0.00000   0.25000   0.00000   |    0.00000   0.13159   0.00000    |
 |     3    0.00000   0.50000   0.00000   |    0.00000   0.26317   0.00000    |
 |     4    0.00000   0.75000   0.00000   |    0.00000   0.39476   0.00000    |
 |     5    0.25000   0.00000   0.00000   |    0.11396   0.06579   0.00000    |
 |     6    0.25000   0.25000   0.00000   |    0.11396   0.19738   0.00000    |
 |     7    0.25000   0.50000   0.00000   |    0.11396   0.32896   0.00000    |
 |     8    0.25000   0.75000   0.00000   |    0.11396   0.46055   0.00000    |
 |     9    0.50000   0.00000   0.00000   |    0.22791   0.13159   0.00000    |
 |    10    0.50000   0.25000   0.00000   |    0.22791   0.26317   0.00000    |
 |    11    0.50000   0.50000   0.00000   |    0.22791   0.39476   0.00000    |
 |    12    0.50000   0.75000   0.00000   |    0.22791   0.52634   0.00000    |
 |    13    0.75000   0.00000   0.00000   |    0.34187   0.19738   0.00000    |
 |    14    0.75000   0.25000   0.00000   |    0.34187   0.32896   0.00000    |
 |    15    0.75000   0.50000   0.00000   |    0.34187   0.46055   0.00000    |
 |    16    0.75000   0.75000   0.00000   |    0.34187   0.59214   0.00000    |
 *----------------------------------------------------------------------------*
  
  
 *---------------------------------- MAIN ------------------------------------*
 |  Number of Wannier Functions               :               181             |
 |  Number of Objective Wannier Functions     :               181             |
 |  Number of input Bloch states              :               450             |
 |  Output verbosity (1=low, 5=high)          :                 3             |
 |  Timing Level (1=low, 5=high)              :                 1             |
 |  Optimisation (0=memory, 3=speed)          :                 3             |
 |  Length Unit                               :               Ang             |
 |  Post-processing setup (write *.nnkp)      :                 F             |
 |  Using Gamma-only branch of algorithms     :                 F             |
 |  CP code post-processing                   :                 F             |
 |  Wavefunction (UNK) file-type              :       unformatted             |
 |  Wavefunction spin channel                 :                up             |
 *----------------------------------------------------------------------------*
 *------------------------------- WANNIERISE ---------------------------------*
 |  Total number of iterations                :               500             |
 |  Number of CG steps before reset           :                 5             |
 |  Trial step length for line search         :             2.000             |
 |  Convergence tolerence                     :         0.100E-09             |
 |  Convergence window                        :                -1             |
 |  Iterations between writing output         :                50             |
 |  Iterations between backing up to disk     :               100             |
 |  Write r^2_nm to file                      :                 F             |
 |  Write xyz WF centres to file              :                 T             |
 |  Write on-site energies <0n|H|0n> to file  :                 F             |
 |  Use guiding centre to control phases      :                 T             |
 |  Use phases for initial projections        :                 F             |
 |  Iterations before starting guiding centres:                 0             |
 |  Iterations between using guiding centres  :                 1             |
 |  Perform selective localization            :                 F             |
 |  Use constrains in selective localization  :                 F             |
 |  Value of the Lagrange multiplier          :         0.100E+01             |
 *----------------------------------------------------------------------------*
 *------------------------------- DISENTANGLE --------------------------------*
 |  Using band disentanglement                :                 T             |
 |  Total number of iterations                :              4000             |
 |  Mixing ratio                              :             0.500             |
 |  Convergence tolerence                     :         1.000E-10             |
 |  Convergence window                        :                 3             |
 *----------------------------------------------------------------------------*
 *-------------------------------- PLOTTING ----------------------------------*
 |  Plotting Wannier functions                :                 F             |
 |   Size of supercell for plotting           :     2x    2x    2             |
 |   Plotting mode (molecule or crystal)      :           crystal             |
 |   Plotting format                          :          xcrysden             |
 |   Plot radius                              :             3.500             |
 |   Plot scale                               :             1.000             |
 *----------------------------------------------------------------------------*
 |  Plotting Fermi surface                    :                 F             |
 |   Number of plotting points (along b_1)    :                50             |
 |   Plotting format                          :          xcrysden             |
 *----------------------------------------------------------------------------*
 |  Plotting interpolated bandstructure       :                 T             |
 |   Number of K-path sections                :                 3             |
 |   Divisions along first K-path section     :               100             |
 |   Output format                            :           gnuplot             |
 |   Output mode                              :               s-k             |
 *----------------------------------------------------------------------------*
 |   K-space path sections:                                                   |
 |    From: Γ      0.000  0.000  0.000     To: M       0.500  0.000  0.000   |
 |    From: M       0.500  0.000  0.000     To: K       0.333  0.333  0.000   |
 |    From: K       0.333  0.333  0.000     To: Γ      0.000  0.000  0.000   |
 *----------------------------------------------------------------------------*
 |  Plotting Hamiltonian in WF basis          :                 T             |
 *----------------------------------------------------------------------------*
 |  Writing data for Van der Waals post-proc  :                 F             |
 *----------------------------------------------------------------------------*
 *------------------------------- TRANSPORT ----------------------------------*
 |  Transport mode                            :              bulk             |
 |   Hamiltonian from external files          :                 F             |
 |   System extended in                       :              none             |
 |   Centre of the unit cell to which WF are translated (fract. coords):      |
 |                                       0.000000,    0.000000,    0.000000   |
 |  Fermi energy (eV)                         :             0.000             |
 *----------------------------------------------------------------------------*
 Time to read parameters        0.030 (sec)

 *---------------------------------- K-MESH ----------------------------------*
 +----------------------------------------------------------------------------+
 |                    Distance to Nearest-Neighbour Shells                    |
 |                    ------------------------------------                    |
 |          Shell             Distance (Ang^-1)          Multiplicity         |
 |          -----             -----------------          ------------         |
 |             1                   0.131586                      6            |
 |             2                   0.227913                      6            |
 |             3                   0.263171                      6            |
 |             4                   0.265883                      2            |
 |             5                   0.296662                     12            |
 |             6                   0.348143                     12            |
 |             7                   0.350197                     12            |
 |             8                   0.374103                     12            |
 |             9                   0.394757                      6            |
 |            10                   0.438061                     24            |
 |            11                   0.455826                      6            |
 |            12                   0.474439                     12            |
 |            13                   0.475948                     12            |
 |            14                   0.526343                      6            |
 |            15                   0.527704                     12            |
 |            16                   0.531765                      2            |
 |            17                   0.543862                     24            |
 |            18                   0.547804                     12            |
 |            19                   0.573569                     12            |
 |            20                   0.578549                     12            |
 |            21                   0.589686                     12            |
 |            22                   0.593324                     12            |
 |            23                   0.603001                     12            |
 |            24                   0.632198                     24            |
 |            25                   0.635592                     24            |
 |            26                   0.657928                      6            |
 |            27                   0.659018                     24            |
 |            28                   0.662274                     12            |
 |            29                   0.683739                      6            |
 |            30                   0.696286                     12            |
 |            31                   0.700394                     12            |
 |            32                   0.709622                     12            |
 |            33                   0.712647                     24            |
 |            34                   0.732638                     12            |
 |            35                   0.733616                     12            |
 |            36                   0.745324                     24            |
 +----------------------------------------------------------------------------+
 | The b-vectors are chosen automatically                                     |
 | Shell:  1 Multiplicity:  6                                                 |
 | b-vector 1 :        0.000000    0.131586    0.000000      (Ang^-1)         |
 | b-vector 2 :        0.113957    0.065793    0.000000      (Ang^-1)         |
 | b-vector 3 :        0.000000   -0.131586    0.000000      (Ang^-1)         |
 | b-vector 4 :        0.113957   -0.065793    0.000000      (Ang^-1)         |
 | b-vector 5 :       -0.113957   -0.065793    0.000000      (Ang^-1)         |
 | b-vector 6 :       -0.113957    0.065793    0.000000      (Ang^-1)         |
 | Shell:  1 w_b   19.2513662      (Ang^2)                                    |
 | B1 condition is not satisfied: Adding another shell                        |
 | Shell:  2 Multiplicity:  6                                                 |
 | b-vector 1 :        0.113957    0.197379    0.000000      (Ang^-1)         |
 | b-vector 2 :        0.113957   -0.197379    0.000000      (Ang^-1)         |
 | b-vector 3 :        0.227913   -0.000000    0.000000      (Ang^-1)         |
 | b-vector 4 :       -0.227913    0.000000    0.000000      (Ang^-1)         |
 | b-vector 5 :       -0.113957    0.197379    0.000000      (Ang^-1)         |
 | b-vector 6 :       -0.113957   -0.197379    0.000000      (Ang^-1)         |
 | SVD found small singular value, Rejecting this shell and trying the next   |
 | Shell:  3 Multiplicity:  6                                                 |
 | b-vector 1 :        0.000000    0.263171    0.000000      (Ang^-1)         |
 | b-vector 2 :        0.227913    0.131586    0.000000      (Ang^-1)         |
 | b-vector 3 :        0.000000   -0.263171    0.000000      (Ang^-1)         |
 | b-vector 4 :        0.227913   -0.131586    0.000000      (Ang^-1)         |
 | b-vector 5 :       -0.227913   -0.131586    0.000000      (Ang^-1)         |
 | b-vector 6 :       -0.227913    0.131586    0.000000      (Ang^-1)         |
 | This shell is linearly dependent on existing shells: Trying next shell     |
 | Shell:  4 Multiplicity:  2                                                 |
 | b-vector 1 :        0.000000    0.000000    0.265883      (Ang^-1)         |
 | b-vector 2 :        0.000000    0.000000   -0.265883      (Ang^-1)         |
 | Shell:  1 w_b   19.2513662      (Ang^2)                                    |
 | Shell:  2 w_b    7.0727819      (Ang^2)                                    |
 | The following shells are used:   1,  4                                     |
 +----------------------------------------------------------------------------+
 |                        Shell   # Nearest-Neighbours                        |
 |                        -----   --------------------                        |
 |                          1               6                                 |
 |                          4               2                                 |
 +----------------------------------------------------------------------------+
 | Completeness relation is fully satisfied [Eq. (B1), PRB 56, 12847 (1997)]  |
 +----------------------------------------------------------------------------+
 |                  b_k Vectors (Ang^-1) and Weights (Ang^2)                  |
 |                  ----------------------------------------                  |
 |            No.         b_k(x)      b_k(y)      b_k(z)        w_b           |
 |            ---        --------------------------------     --------        |
 |             1         0.000000    0.131586    0.000000    19.251366        |
 |             2         0.113957    0.065793    0.000000    19.251366        |
 |             3         0.000000   -0.131586    0.000000    19.251366        |
 |             4         0.113957   -0.065793    0.000000    19.251366        |
 |             5        -0.113957   -0.065793    0.000000    19.251366        |
 |             6        -0.113957    0.065793    0.000000    19.251366        |
 |             7         0.000000    0.000000    0.265883     7.072782        |
 |             8         0.000000    0.000000   -0.265883     7.072782        |
 +----------------------------------------------------------------------------+
 |                           b_k Directions (Ang^-1)                          |
 |                           -----------------------                          |
 |            No.           x           y           z                         |
 |            ---        --------------------------------                     |
 |             1         0.000000    0.131586    0.000000                     |
 |             2         0.113957    0.065793    0.000000                     |
 |             3         0.113957   -0.065793    0.000000                     |
 |             4         0.000000    0.000000    0.265883                     |
 +----------------------------------------------------------------------------+
  
 Time to get kmesh              0.022 (sec)
 *============================================================================*
 |                              MEMORY ESTIMATE                               |
 |         Maximum RAM allocated during each phase of the calculation         |
 *============================================================================*
 |                        Disentanglement          550.06 Mb                  |
 |                            Wannierise:          183.41 Mb                  |
 |                                                                            |
 |   N.B. by setting optimisation=0 memory usage will be reduced to:          |
 |                        Disentanglement          550.06 Mb                  |
 |                            Wannierise:          119.42 Mb                  |
 |   However, this will result in more i/o and slow down the calculation      |
 |                          plot_wannier:          183.41 Mb                  |
 *----------------------------------------------------------------------------*
  
 Starting a new Wannier90 calculation ...


 Reading overlaps from 1Fe_centreconf.up.mmn    :  Created on 11Jul2023 at 18:44:33

 Reading projections from 1Fe_centreconf.up.amn :  Created on 11Jul2023 at 18:25:54

 Time to read overlaps         62.654 (sec)

 *------------------------------- DISENTANGLE --------------------------------*
 +----------------------------------------------------------------------------+
 |                              Energy  Windows                               |
 |                              ---------------                               |
 |                   Outer:  -30.00000  to   30.00000  (eV)                   |
 |                   Inner:   -6.00000  to    2.50000  (eV)                   |
 +----------------------------------------------------------------------------+
 |                        K-points with Frozen States                         |
 |                        ---------------------------                         |
 |     1     2     3     4     5     6     7     8     9    10    11    12    |
 |    13    14    15    16                                                    |
 +----------------------------------------------------------------------------+
   Number of target bands to extract:  181
 +----------------------------------------------------------------------------+
 |                                  Windows                                   |
 |                                  -------                                   |
 |               K-point      Ndimwin     Ndimfroz    Nfirstwin               |
 |               ----------------------------------------------               |
 |                   1          382          159          69                  |
 |                   2          382          160          69                  |
 |                   3          382          158          69                  |
 |                   4          382          160          69                  |
 |                   5          382          160          69                  |
 |                   6          382          161          69                  |
 |                   7          382          161          69                  |
 |                   8          382          160          69                  |
 |                   9          382          158          69                  |
 |                  10          382          161          69                  |
 |                  11          382          158          69                  |
 |                  12          382          161          69                  |
 |                  13          382          160          69                  |
 |                  14          382          160          69                  |
 |                  15          382          161          69                  |
 |                  16          382          161          69                  |
 +----------------------------------------------------------------------------+

                   Unitarised projection of Wannier functions                  
                   ------------------------------------------                  
   A_mn = <psi_m|g_n> --> S = A.A^+ --> U = S^-1/2.A
   In dis_project... done
   Using an inner window (linner = T)
   In dis_proj_froz...
 K-point   1 ndimwin: 382 we want the 22 leading eigenvector(s) of QPQ
  lambda(  1)= -0.000000000000
  lambda(  2)= -0.000000000000
  lambda(  3)= -0.000000000000
  lambda(  4)= -0.000000000000
  lambda(  5)= -0.000000000000
  lambda(  6)= -0.000000000000
  lambda(  7)= -0.000000000000
  lambda(  8)= -0.000000000000
  lambda(  9)= -0.000000000000
  lambda( 10)= -0.000000000000
  lambda( 11)= -0.000000000000
  lambda( 12)= -0.000000000000
  lambda( 13)= -0.000000000000
  lambda( 14)= -0.000000000000
  lambda( 15)= -0.000000000000
  lambda( 16)= -0.000000000000
  lambda( 17)= -0.000000000000
  lambda( 18)= -0.000000000000
  lambda( 19)= -0.000000000000
  lambda( 20)= -0.000000000000
  lambda( 21)= -0.000000000000
  lambda( 22)= -0.000000000000
  lambda( 23)= -0.000000000000
  lambda( 24)= -0.000000000000
  lambda( 25)= -0.000000000000
  lambda( 26)= -0.000000000000
  lambda( 27)= -0.000000000000
  lambda( 28)= -0.000000000000
  lambda( 29)= -0.000000000000
  lambda( 30)= -0.000000000000
  lambda( 31)= -0.000000000000
  lambda( 32)= -0.000000000000
  lambda( 33)= -0.000000000000
  lambda( 34)= -0.000000000000
  lambda( 35)= -0.000000000000
  lambda( 36)= -0.000000000000
  lambda( 37)= -0.000000000000
  lambda( 38)= -0.000000000000
  lambda( 39)= -0.000000000000
  lambda( 40)= -0.000000000000
  lambda( 41)= -0.000000000000
  lambda( 42)= -0.000000000000
  lambda( 43)= -0.000000000000
  lambda( 44)= -0.000000000000
  lambda( 45)= -0.000000000000
  lambda( 46)= -0.000000000000
  lambda( 47)= -0.000000000000
  lambda( 48)= -0.000000000000
  lambda( 49)= -0.000000000000
  lambda( 50)= -0.000000000000
  lambda( 51)= -0.000000000000
  lambda( 52)= -0.000000000000
  lambda( 53)= -0.000000000000
  lambda( 54)= -0.000000000000
  lambda( 55)= -0.000000000000
  lambda( 56)= -0.000000000000
  lambda( 57)= -0.000000000000
  lambda( 58)= -0.000000000000
  lambda( 59)= -0.000000000000
  lambda( 60)= -0.000000000000
  lambda( 61)= -0.000000000000
  lambda( 62)= -0.000000000000
  lambda( 63)= -0.000000000000
  lambda( 64)= -0.000000000000
  lambda( 65)= -0.000000000000
  lambda( 66)= -0.000000000000
  lambda( 67)= -0.000000000000
  lambda( 68)= -0.000000000000
  lambda( 69)= -0.000000000000
  lambda( 70)= -0.000000000000
  lambda( 71)= -0.000000000000
  lambda( 72)= -0.000000000000
  lambda( 73)= -0.000000000000
  lambda( 74)= -0.000000000000
  lambda( 75)= -0.000000000000
  lambda( 76)= -0.000000000000
  lambda( 77)= -0.000000000000
  lambda( 78)= -0.000000000000
  lambda( 79)= -0.000000000000
  lambda( 80)= -0.000000000000
  lambda( 81)= -0.000000000000
  lambda( 82)= -0.000000000000
  lambda( 83)= -0.000000000000
  lambda( 84)= -0.000000000000
  lambda( 85)= -0.000000000000
  lambda( 86)= -0.000000000000
  lambda( 87)= -0.000000000000
  lambda( 88)= -0.000000000000
  lambda( 89)= -0.000000000000
  lambda( 90)= -0.000000000000
  lambda( 91)= -0.000000000000
  lambda( 92)= -0.000000000000
  lambda( 93)= -0.000000000000
  lambda( 94)= -0.000000000000
  lambda( 95)= -0.000000000000
  lambda( 96)= -0.000000000000
  lambda( 97)= -0.000000000000
  lambda( 98)= -0.000000000000
  lambda( 99)= -0.000000000000
  lambda(100)= -0.000000000000
  lambda(101)= -0.000000000000
  lambda(102)=  0.000000000000
  lambda(103)=  0.000000000000
  lambda(104)=  0.000000000000
  lambda(105)=  0.000000000000
  lambda(106)=  0.000000000000
  lambda(107)=  0.000000000000
  lambda(108)=  0.000000000000
  lambda(109)=  0.000000000000
  lambda(110)=  0.000000000000
  lambda(111)=  0.000000000000
  lambda(112)=  0.000000000000
  lambda(113)=  0.000000000000
  lambda(114)=  0.000000000000
  lambda(115)=  0.000000000000
  lambda(116)=  0.000000000000
  lambda(117)=  0.000000000000
  lambda(118)=  0.000000000000
  lambda(119)=  0.000000000000
  lambda(120)=  0.000000000000
  lambda(121)=  0.000000000000
  lambda(122)=  0.000000000000
  lambda(123)=  0.000000000000
  lambda(124)=  0.000000000000
  lambda(125)=  0.000000000000
  lambda(126)=  0.000000000000
  lambda(127)=  0.000000000000
  lambda(128)=  0.000000000000
  lambda(129)=  0.000000000000
  lambda(130)=  0.000000000000
  lambda(131)=  0.000000000000
  lambda(132)=  0.000000000000
  lambda(133)=  0.000000000000
  lambda(134)=  0.000000000000
  lambda(135)=  0.000000000000
  lambda(136)=  0.000000000000
  lambda(137)=  0.000000000000
  lambda(138)=  0.000000000000
  lambda(139)=  0.000000000000
  lambda(140)=  0.000000000000
  lambda(141)=  0.000000000000
  lambda(142)=  0.000000000000
  lambda(143)=  0.000000000000
  lambda(144)=  0.000000000000
  lambda(145)=  0.000000000000
  lambda(146)=  0.000000000000
  lambda(147)=  0.000000000000
  lambda(148)=  0.000000000000
  lambda(149)=  0.000000000000
  lambda(150)=  0.000000000000
  lambda(151)=  0.000000000000
  lambda(152)=  0.000000000000
  lambda(153)=  0.000000000000
  lambda(154)=  0.000000000000
  lambda(155)=  0.000000000000
  lambda(156)=  0.000000000000
  lambda(157)=  0.000000000000
  lambda(158)=  0.000000000000
  lambda(159)=  0.000000000000
  lambda(160)=  0.000000000000
  lambda(161)=  0.000000000000
  lambda(162)=  0.000000000000
  lambda(163)=  0.000000000000
  lambda(164)=  0.000000000000
  lambda(165)=  0.000000000000
  lambda(166)=  0.000000000000
  lambda(167)=  0.000000000000
  lambda(168)=  0.000000000000
  lambda(169)=  0.000000000000
  lambda(170)=  0.000000000000
  lambda(171)=  0.000000000000
  lambda(172)=  0.000000000000
  lambda(173)=  0.000000000000
  lambda(174)=  0.000000000000
  lambda(175)=  0.000000000000
  lambda(176)=  0.000000000000
  lambda(177)=  0.000000000000
  lambda(178)=  0.000000000000
  lambda(179)=  0.000000000000
  lambda(180)=  0.000000000000
  lambda(181)=  0.000000000000
  lambda(182)=  0.000000000000
  lambda(183)=  0.000000000000
  lambda(184)=  0.000000000000
  lambda(185)=  0.000000000000
  lambda(186)=  0.000000000000
  lambda(187)=  0.000000000000
  lambda(188)=  0.000000000000
  lambda(189)=  0.000000000000
  lambda(190)=  0.000000000000
  lambda(191)=  0.000000000000
  lambda(192)=  0.000000000000
  lambda(193)=  0.000000000000
  lambda(194)=  0.000000000000
  lambda(195)=  0.000000000000
  lambda(196)=  0.000000000000
  lambda(197)=  0.000000000000
  lambda(198)=  0.000000000000
  lambda(199)=  0.000000000000
  lambda(200)=  0.000000000000
  lambda(201)=  0.000000000000
  lambda(202)=  0.000000000000
  lambda(203)=  0.000000000000
  lambda(204)=  0.000000000000
  lambda(205)=  0.000000000000
  lambda(206)=  0.000000000000
  lambda(207)=  0.000000000000
  lambda(208)=  0.000000000002
  lambda(209)=  0.000000010557
  lambda(210)=  0.000000010984
  lambda(211)=  0.000000013848
  lambda(212)=  0.000000029370
  lambda(213)=  0.000000117146
  lambda(214)=  0.000000174972
  lambda(215)=  0.000000222618
  lambda(216)=  0.000000422704
  lambda(217)=  0.000000807537
  lambda(218)=  0.000000812228
  lambda(219)=  0.000000856618
  lambda(220)=  0.000001552824
  lambda(221)=  0.000001574167
  lambda(222)=  0.000002387672
  lambda(223)=  0.000002415225
  lambda(224)=  0.000004338593
  lambda(225)=  0.000019852551
  lambda(226)=  0.000020741271
  lambda(227)=  0.000051094256
  lambda(228)=  0.000054530339
  lambda(229)=  0.000060771510
  lambda(230)=  0.000113472908
  lambda(231)=  0.000128404059
  lambda(232)=  0.000203528315
  lambda(233)=  0.000271158672
  lambda(234)=  0.000276644169
  lambda(235)=  0.000352865589
  lambda(236)=  0.000366993812
  lambda(237)=  0.000395210756
  lambda(238)=  0.000445817494
  lambda(239)=  0.000507005599
  lambda(240)=  0.000574698673
  lambda(241)=  0.000593532583
  lambda(242)=  0.000659702682
  lambda(243)=  0.000758778176
  lambda(244)=  0.000774265073
  lambda(245)=  0.000863239063
  lambda(246)=  0.001116608976
  lambda(247)=  0.001267512527
  lambda(248)=  0.001420883432
  lambda(249)=  0.001642393207
  lambda(250)=  0.002080158488
  lambda(251)=  0.002184150119
  lambda(252)=  0.002206450606
  lambda(253)=  0.002975991526
  lambda(254)=  0.003300951216
  lambda(255)=  0.003385968800
  lambda(256)=  0.003406972305
  lambda(257)=  0.003606004783
  lambda(258)=  0.004135466142
  lambda(259)=  0.004829308997
  lambda(260)=  0.004866106173
  lambda(261)=  0.005806860605
  lambda(262)=  0.006417810153
  lambda(263)=  0.007183520598
  lambda(264)=  0.007407820580
  lambda(265)=  0.008029275915
  lambda(266)=  0.008306101033
  lambda(267)=  0.009092459124
  lambda(268)=  0.013270749024
  lambda(269)=  0.014389113659
  lambda(270)=  0.014505265557
  lambda(271)=  0.015010034216
  lambda(272)=  0.015339069833
  lambda(273)=  0.015742008941
  lambda(274)=  0.016313821057
  lambda(275)=  0.016708555896
  lambda(276)=  0.018800985447
  lambda(277)=  0.018971880455
  lambda(278)=  0.019205096309
  lambda(279)=  0.020380550630
  lambda(280)=  0.020448651397
  lambda(281)=  0.020703435990
  lambda(282)=  0.022190914363
  lambda(283)=  0.022822596703
  lambda(284)=  0.022835933791
  lambda(285)=  0.026264714275
  lambda(286)=  0.026540739320
  lambda(287)=  0.026542598304
  lambda(288)=  0.032638703241
  lambda(289)=  0.033002351770
  lambda(290)=  0.033226165831
  lambda(291)=  0.033946996802
  lambda(292)=  0.034068412885
  lambda(293)=  0.035091284110
  lambda(294)=  0.037778985521
  lambda(295)=  0.037784282805
  lambda(296)=  0.046269659661
  lambda(297)=  0.049084315936
  lambda(298)=  0.049249621396
  lambda(299)=  0.051690891354
  lambda(300)=  0.051792990323
  lambda(301)=  0.052831475712
  lambda(302)=  0.052989290136
  lambda(303)=  0.055403575910
  lambda(304)=  0.063245595790
  lambda(305)=  0.064046480879
  lambda(306)=  0.064275412095
  lambda(307)=  0.064723368463
  lambda(308)=  0.069638660559
  lambda(309)=  0.069982980832
  lambda(310)=  0.070361412167
  lambda(311)=  0.071369160661
  lambda(312)=  0.073284243870
  lambda(313)=  0.073374489673
  lambda(314)=  0.078496091534
  lambda(315)=  0.082108528960
  lambda(316)=  0.087755108713
  lambda(317)=  0.091770981963
  lambda(318)=  0.092439581971
  lambda(319)=  0.116069241652
  lambda(320)=  0.117404595316
  lambda(321)=  0.117433526653
  lambda(322)=  0.118854547712
  lambda(323)=  0.123781365257
  lambda(324)=  0.123839809735
  lambda(325)=  0.124626781256
  lambda(326)=  0.133952753068
  lambda(327)=  0.134027171861
  lambda(328)=  0.134083877490
  lambda(329)=  0.136000484249
  lambda(330)=  0.136002180695
  lambda(331)=  0.138706987650
  lambda(332)=  0.140016290928
  lambda(333)=  0.140213004362
  lambda(334)=  0.143670578395
  lambda(335)=  0.144121286299
  lambda(336)=  0.163702699678
  lambda(337)=  0.163940783548
  lambda(338)=  0.166094347306
  lambda(339)=  0.167393825056
  lambda(340)=  0.171592869718
  lambda(341)=  0.173242053230
  lambda(342)=  0.173268254098
  lambda(343)=  0.175072922072
  lambda(344)=  0.175278518001
  lambda(345)=  0.176234506706
  lambda(346)=  0.177135183889
  lambda(347)=  0.180836684064
  lambda(348)=  0.183224623635
  lambda(349)=  0.183232715047
  lambda(350)=  0.185190704837
  lambda(351)=  0.194186870063
  lambda(352)=  0.194354195741
  lambda(353)=  0.196347109887
  lambda(354)=  0.200021546780
  lambda(355)=  0.203089020384
  lambda(356)=  0.225584003868
  lambda(357)=  0.286297076819
  lambda(358)=  0.286445678964
  lambda(359)=  0.309008809328
  lambda(360)=  0.521573881152
  lambda(361)=  1.000000000000
  lambda(362)=  1.000000000000
  lambda(363)=  1.000000000000
  lambda(364)=  1.000000000000
  lambda(365)=  1.000000000000
  lambda(366)=  1.000000000000
  lambda(367)=  1.000000000000
  lambda(368)=  1.000000000000
  lambda(369)=  1.000000000000
  lambda(370)=  1.000000000000
  lambda(371)=  1.000000000000
  lambda(372)=  1.000000000000
  lambda(373)=  1.000000000000
  lambda(374)=  1.000000000000
  lambda(375)=  1.000000000000
  lambda(376)=  1.000000000000
  lambda(377)=  1.000000000000
  lambda(378)=  1.000000000000
  lambda(379)=  1.000000000000
  lambda(380)=  1.000000000000
  lambda(381)=  1.000000000000
  lambda(382)=  1.000000000000

 K-point   2 ndimwin: 382 we want the 21 leading eigenvector(s) of QPQ
  lambda(  1)= -0.000000000000
  lambda(  2)= -0.000000000000
  lambda(  3)= -0.000000000000
  lambda(  4)= -0.000000000000
  lambda(  5)= -0.000000000000
  lambda(  6)= -0.000000000000
  lambda(  7)= -0.000000000000
  lambda(  8)= -0.000000000000
  lambda(  9)= -0.000000000000
  lambda( 10)= -0.000000000000
  lambda( 11)= -0.000000000000
  lambda( 12)= -0.000000000000
  lambda( 13)= -0.000000000000
  lambda( 14)= -0.000000000000
  lambda( 15)= -0.000000000000
  lambda( 16)= -0.000000000000
  lambda( 17)= -0.000000000000
  lambda( 18)= -0.000000000000
  lambda( 19)= -0.000000000000
  lambda( 20)= -0.000000000000
  lambda( 21)= -0.000000000000
  lambda( 22)= -0.000000000000
  lambda( 23)= -0.000000000000
  lambda( 24)= -0.000000000000
  lambda( 25)= -0.000000000000
  lambda( 26)= -0.000000000000
  lambda( 27)= -0.000000000000
  lambda( 28)= -0.000000000000
  lambda( 29)= -0.000000000000
  lambda( 30)= -0.000000000000
  lambda( 31)= -0.000000000000
  lambda( 32)= -0.000000000000
  lambda( 33)= -0.000000000000
  lambda( 34)= -0.000000000000
  lambda( 35)= -0.000000000000
  lambda( 36)= -0.000000000000
  lambda( 37)= -0.000000000000
  lambda( 38)= -0.000000000000
  lambda( 39)= -0.000000000000
  lambda( 40)= -0.000000000000
  lambda( 41)= -0.000000000000
  lambda( 42)= -0.000000000000
  lambda( 43)= -0.000000000000
  lambda( 44)= -0.000000000000
  lambda( 45)= -0.000000000000
  lambda( 46)= -0.000000000000
  lambda( 47)= -0.000000000000
  lambda( 48)= -0.000000000000
  lambda( 49)= -0.000000000000
  lambda( 50)= -0.000000000000
  lambda( 51)= -0.000000000000
  lambda( 52)= -0.000000000000
  lambda( 53)= -0.000000000000
  lambda( 54)= -0.000000000000
  lambda( 55)= -0.000000000000
  lambda( 56)= -0.000000000000
  lambda( 57)= -0.000000000000
  lambda( 58)= -0.000000000000
  lambda( 59)= -0.000000000000
  lambda( 60)= -0.000000000000
  lambda( 61)= -0.000000000000
  lambda( 62)= -0.000000000000
  lambda( 63)= -0.000000000000
  lambda( 64)= -0.000000000000
  lambda( 65)= -0.000000000000
  lambda( 66)= -0.000000000000
  lambda( 67)= -0.000000000000
  lambda( 68)= -0.000000000000
  lambda( 69)= -0.000000000000
  lambda( 70)= -0.000000000000
  lambda( 71)= -0.000000000000
  lambda( 72)= -0.000000000000
  lambda( 73)= -0.000000000000
  lambda( 74)= -0.000000000000
  lambda( 75)= -0.000000000000
  lambda( 76)= -0.000000000000
  lambda( 77)= -0.000000000000
  lambda( 78)= -0.000000000000
  lambda( 79)= -0.000000000000
  lambda( 80)= -0.000000000000
  lambda( 81)= -0.000000000000
  lambda( 82)= -0.000000000000
  lambda( 83)= -0.000000000000
  lambda( 84)= -0.000000000000
  lambda( 85)= -0.000000000000
  lambda( 86)= -0.000000000000
  lambda( 87)= -0.000000000000
  lambda( 88)= -0.000000000000
  lambda( 89)= -0.000000000000
  lambda( 90)= -0.000000000000
  lambda( 91)= -0.000000000000
  lambda( 92)= -0.000000000000
  lambda( 93)= -0.000000000000
  lambda( 94)= -0.000000000000
  lambda( 95)= -0.000000000000
  lambda( 96)= -0.000000000000
  lambda( 97)= -0.000000000000
  lambda( 98)= -0.000000000000
  lambda( 99)= -0.000000000000
  lambda(100)= -0.000000000000
  lambda(101)= -0.000000000000
  lambda(102)= -0.000000000000
  lambda(103)= -0.000000000000
  lambda(104)=  0.000000000000
  lambda(105)=  0.000000000000
  lambda(106)=  0.000000000000
  lambda(107)=  0.000000000000
  lambda(108)=  0.000000000000
  lambda(109)=  0.000000000000
  lambda(110)=  0.000000000000
  lambda(111)=  0.000000000000
  lambda(112)=  0.000000000000
  lambda(113)=  0.000000000000
  lambda(114)=  0.000000000000
  lambda(115)=  0.000000000000
  lambda(116)=  0.000000000000
  lambda(117)=  0.000000000000
  lambda(118)=  0.000000000000
  lambda(119)=  0.000000000000
  lambda(120)=  0.000000000000
  lambda(121)=  0.000000000000
  lambda(122)=  0.000000000000
  lambda(123)=  0.000000000000
  lambda(124)=  0.000000000000
  lambda(125)=  0.000000000000
  lambda(126)=  0.000000000000
  lambda(127)=  0.000000000000
  lambda(128)=  0.000000000000
  lambda(129)=  0.000000000000
  lambda(130)=  0.000000000000
  lambda(131)=  0.000000000000
  lambda(132)=  0.000000000000
  lambda(133)=  0.000000000000
  lambda(134)=  0.000000000000
  lambda(135)=  0.000000000000
  lambda(136)=  0.000000000000
  lambda(137)=  0.000000000000
  lambda(138)=  0.000000000000
  lambda(139)=  0.000000000000
  lambda(140)=  0.000000000000
  lambda(141)=  0.000000000000
  lambda(142)=  0.000000000000
  lambda(143)=  0.000000000000
  lambda(144)=  0.000000000000
  lambda(145)=  0.000000000000
  lambda(146)=  0.000000000000
  lambda(147)=  0.000000000000
  lambda(148)=  0.000000000000
  lambda(149)=  0.000000000000
  lambda(150)=  0.000000000000
  lambda(151)=  0.000000000000
  lambda(152)=  0.000000000000
  lambda(153)=  0.000000000000
  lambda(154)=  0.000000000000
  lambda(155)=  0.000000000000
  lambda(156)=  0.000000000000
  lambda(157)=  0.000000000000
  lambda(158)=  0.000000000000
  lambda(159)=  0.000000000000
  lambda(160)=  0.000000000000
  lambda(161)=  0.000000000000
  lambda(162)=  0.000000000000
  lambda(163)=  0.000000000000
  lambda(164)=  0.000000000000
  lambda(165)=  0.000000000000
  lambda(166)=  0.000000000000
  lambda(167)=  0.000000000000
  lambda(168)=  0.000000000000
  lambda(169)=  0.000000000000
  lambda(170)=  0.000000000000
  lambda(171)=  0.000000000000
  lambda(172)=  0.000000000000
  lambda(173)=  0.000000000000
  lambda(174)=  0.000000000000
  lambda(175)=  0.000000000000
  lambda(176)=  0.000000000000
  lambda(177)=  0.000000000000
  lambda(178)=  0.000000000000
  lambda(179)=  0.000000000000
  lambda(180)=  0.000000000000
  lambda(181)=  0.000000000000
  lambda(182)=  0.000000000000
  lambda(183)=  0.000000000000
  lambda(184)=  0.000000000000
  lambda(185)=  0.000000000000
  lambda(186)=  0.000000000000
  lambda(187)=  0.000000000000
  lambda(188)=  0.000000000000
  lambda(189)=  0.000000000000
  lambda(190)=  0.000000000000
  lambda(191)=  0.000000000000
  lambda(192)=  0.000000000000
  lambda(193)=  0.000000000000
  lambda(194)=  0.000000000000
  lambda(195)=  0.000000000000
  lambda(196)=  0.000000000000
  lambda(197)=  0.000000000000
  lambda(198)=  0.000000000000
  lambda(199)=  0.000000000000
  lambda(200)=  0.000000000000
  lambda(201)=  0.000000000000
  lambda(202)=  0.000000000996
  lambda(203)=  0.000000003793
  lambda(204)=  0.000000008904
  lambda(205)=  0.000000016957
  lambda(206)=  0.000000025786
  lambda(207)=  0.000000073480
  lambda(208)=  0.000000322126
  lambda(209)=  0.000000497143
  lambda(210)=  0.000001418715
  lambda(211)=  0.000002394017
  lambda(212)=  0.000003357961
  lambda(213)=  0.000006060644
  lambda(214)=  0.000014775534
  lambda(215)=  0.000017915420
  lambda(216)=  0.000020664920
  lambda(217)=  0.000022933748
  lambda(218)=  0.000028531161
  lambda(219)=  0.000045829920
  lambda(220)=  0.000063840188
  lambda(221)=  0.000064723758
  lambda(222)=  0.000086104375
  lambda(223)=  0.000103959185
  lambda(224)=  0.000158113664
  lambda(225)=  0.000195430290
  lambda(226)=  0.000261200808
  lambda(227)=  0.000264840117
  lambda(228)=  0.000287993118
  lambda(229)=  0.000348487642
  lambda(230)=  0.000350781824
  lambda(231)=  0.000463110354
  lambda(232)=  0.000469020986
  lambda(233)=  0.000535786441
  lambda(234)=  0.000576036001
  lambda(235)=  0.000662142054
  lambda(236)=  0.000702136934
  lambda(237)=  0.000772060644
  lambda(238)=  0.000904391588
  lambda(239)=  0.001130622236
  lambda(240)=  0.001162539635
  lambda(241)=  0.001300630672
  lambda(242)=  0.001434198202
  lambda(243)=  0.001631575589
  lambda(244)=  0.001720702723
  lambda(245)=  0.001959235509
  lambda(246)=  0.001998038665
  lambda(247)=  0.002360457295
  lambda(248)=  0.002535155544
  lambda(249)=  0.002993396053
  lambda(250)=  0.003297715378
  lambda(251)=  0.003614102016
  lambda(252)=  0.004304024253
  lambda(253)=  0.004877580011
  lambda(254)=  0.005640763525
  lambda(255)=  0.006074742673
  lambda(256)=  0.006658000067
  lambda(257)=  0.007087330517
  lambda(258)=  0.007397704246
  lambda(259)=  0.008507393602
  lambda(260)=  0.008976291294
  lambda(261)=  0.009847342694
  lambda(262)=  0.010504530665
  lambda(263)=  0.011118636293
  lambda(264)=  0.011763298114
  lambda(265)=  0.012683586324
  lambda(266)=  0.012857808624
  lambda(267)=  0.014176898196
  lambda(268)=  0.014325561609
  lambda(269)=  0.014975095032
  lambda(270)=  0.014980129610
  lambda(271)=  0.015458630286
  lambda(272)=  0.016401333222
  lambda(273)=  0.016536283572
  lambda(274)=  0.017205843187
  lambda(275)=  0.018220172520
  lambda(276)=  0.019017377391
  lambda(277)=  0.020111129435
  lambda(278)=  0.020266314127
  lambda(279)=  0.020660496893
  lambda(280)=  0.023297592921
  lambda(281)=  0.024588838865
  lambda(282)=  0.024615222211
  lambda(283)=  0.027260655938
  lambda(284)=  0.028340050732
  lambda(285)=  0.029136963289
  lambda(286)=  0.030204730979
  lambda(287)=  0.032040219355
  lambda(288)=  0.033732433894
  lambda(289)=  0.034096199110
  lambda(290)=  0.037609676326
  lambda(291)=  0.038311724388
  lambda(292)=  0.039583159331
  lambda(293)=  0.042202629933
  lambda(294)=  0.044710510375
  lambda(295)=  0.045713072357
  lambda(296)=  0.046029709628
  lambda(297)=  0.048144631054
  lambda(298)=  0.048734151376
  lambda(299)=  0.050254547228
  lambda(300)=  0.051820062805
  lambda(301)=  0.052784287067
  lambda(302)=  0.055579843140
  lambda(303)=  0.056963945363
  lambda(304)=  0.057247989011
  lambda(305)=  0.058554313220
  lambda(306)=  0.060698918018
  lambda(307)=  0.061551299160
  lambda(308)=  0.064767471411
  lambda(309)=  0.066632383759
  lambda(310)=  0.067274455141
  lambda(311)=  0.070485989546
  lambda(312)=  0.071114676366
  lambda(313)=  0.074033775802
  lambda(314)=  0.075171325871
  lambda(315)=  0.076586405829
  lambda(316)=  0.079310280481
  lambda(317)=  0.082757097338
  lambda(318)=  0.084646356226
  lambda(319)=  0.086609470124
  lambda(320)=  0.108040947569
  lambda(321)=  0.109272351022
  lambda(322)=  0.110373545102
  lambda(323)=  0.111725223228
  lambda(324)=  0.114060434861
  lambda(325)=  0.118509332176
  lambda(326)=  0.122041757759
  lambda(327)=  0.122383879530
  lambda(328)=  0.128424645631
  lambda(329)=  0.128535617465
  lambda(330)=  0.132502930950
  lambda(331)=  0.133839038130
  lambda(332)=  0.138243646351
  lambda(333)=  0.140826090736
  lambda(334)=  0.142166385775
  lambda(335)=  0.147890626656
  lambda(336)=  0.151136211080
  lambda(337)=  0.151173370709
  lambda(338)=  0.153594715895
  lambda(339)=  0.154867732584
  lambda(340)=  0.158251528013
  lambda(341)=  0.163366969287
  lambda(342)=  0.165019205904
  lambda(343)=  0.171546079834
  lambda(344)=  0.173715198783
  lambda(345)=  0.176555092749
  lambda(346)=  0.177187530191
  lambda(347)=  0.179054298613
  lambda(348)=  0.182157125563
  lambda(349)=  0.183953976938
  lambda(350)=  0.186619226720
  lambda(351)=  0.189221046960
  lambda(352)=  0.191124289735
  lambda(353)=  0.193666502693
  lambda(354)=  0.196892127592
  lambda(355)=  0.199396416689
  lambda(356)=  0.217702644568
  lambda(357)=  0.233287259461
  lambda(358)=  0.263551955616
  lambda(359)=  0.274438516338
  lambda(360)=  0.304805898778
  lambda(361)=  0.523395919194
  lambda(362)=  1.000000000000
  lambda(363)=  1.000000000000
  lambda(364)=  1.000000000000
  lambda(365)=  1.000000000000
  lambda(366)=  1.000000000000
  lambda(367)=  1.000000000000
  lambda(368)=  1.000000000000
  lambda(369)=  1.000000000000
  lambda(370)=  1.000000000000
  lambda(371)=  1.000000000000
  lambda(372)=  1.000000000000
  lambda(373)=  1.000000000000
  lambda(374)=  1.000000000000
  lambda(375)=  1.000000000000
  lambda(376)=  1.000000000000
  lambda(377)=  1.000000000000
  lambda(378)=  1.000000000000
  lambda(379)=  1.000000000000
  lambda(380)=  1.000000000000
  lambda(381)=  1.000000000000
  lambda(382)=  1.000000000000

 K-point   3 ndimwin: 382 we want the 23 leading eigenvector(s) of QPQ
  lambda(  1)= -0.000000000000
  lambda(  2)= -0.000000000000
  lambda(  3)= -0.000000000000
  lambda(  4)= -0.000000000000
  lambda(  5)= -0.000000000000
  lambda(  6)= -0.000000000000
  lambda(  7)= -0.000000000000
  lambda(  8)= -0.000000000000
  lambda(  9)= -0.000000000000
  lambda( 10)= -0.000000000000
  lambda( 11)= -0.000000000000
  lambda( 12)= -0.000000000000
  lambda( 13)= -0.000000000000
  lambda( 14)= -0.000000000000
  lambda( 15)= -0.000000000000
  lambda( 16)= -0.000000000000
  lambda( 17)= -0.000000000000
  lambda( 18)= -0.000000000000
  lambda( 19)= -0.000000000000
  lambda( 20)= -0.000000000000
  lambda( 21)= -0.000000000000
  lambda( 22)= -0.000000000000
  lambda( 23)= -0.000000000000
  lambda( 24)= -0.000000000000
  lambda( 25)= -0.000000000000
  lambda( 26)= -0.000000000000
  lambda( 27)= -0.000000000000
  lambda( 28)= -0.000000000000
  lambda( 29)= -0.000000000000
  lambda( 30)= -0.000000000000
  lambda( 31)= -0.000000000000
  lambda( 32)= -0.000000000000
  lambda( 33)= -0.000000000000
  lambda( 34)= -0.000000000000
  lambda( 35)= -0.000000000000
  lambda( 36)= -0.000000000000
  lambda( 37)= -0.000000000000
  lambda( 38)= -0.000000000000
  lambda( 39)= -0.000000000000
  lambda( 40)= -0.000000000000
  lambda( 41)= -0.000000000000
  lambda( 42)= -0.000000000000
  lambda( 43)= -0.000000000000
  lambda( 44)= -0.000000000000
  lambda( 45)= -0.000000000000
  lambda( 46)= -0.000000000000
  lambda( 47)= -0.000000000000
  lambda( 48)= -0.000000000000
  lambda( 49)= -0.000000000000
  lambda( 50)= -0.000000000000
  lambda( 51)= -0.000000000000
  lambda( 52)= -0.000000000000
  lambda( 53)= -0.000000000000
  lambda( 54)= -0.000000000000
  lambda( 55)= -0.000000000000
  lambda( 56)= -0.000000000000
  lambda( 57)= -0.000000000000
  lambda( 58)= -0.000000000000
  lambda( 59)= -0.000000000000
  lambda( 60)= -0.000000000000
  lambda( 61)= -0.000000000000
  lambda( 62)= -0.000000000000
  lambda( 63)= -0.000000000000
  lambda( 64)= -0.000000000000
  lambda( 65)= -0.000000000000
  lambda( 66)= -0.000000000000
  lambda( 67)= -0.000000000000
  lambda( 68)= -0.000000000000
  lambda( 69)= -0.000000000000
  lambda( 70)= -0.000000000000
  lambda( 71)= -0.000000000000
  lambda( 72)= -0.000000000000
  lambda( 73)= -0.000000000000
  lambda( 74)= -0.000000000000
  lambda( 75)= -0.000000000000
  lambda( 76)= -0.000000000000
  lambda( 77)= -0.000000000000
  lambda( 78)= -0.000000000000
  lambda( 79)= -0.000000000000
  lambda( 80)= -0.000000000000
  lambda( 81)= -0.000000000000
  lambda( 82)= -0.000000000000
  lambda( 83)= -0.000000000000
  lambda( 84)= -0.000000000000
  lambda( 85)= -0.000000000000
  lambda( 86)= -0.000000000000
  lambda( 87)= -0.000000000000
  lambda( 88)= -0.000000000000
  lambda( 89)= -0.000000000000
  lambda( 90)= -0.000000000000
  lambda( 91)= -0.000000000000
  lambda( 92)= -0.000000000000
  lambda( 93)= -0.000000000000
  lambda( 94)= -0.000000000000
  lambda( 95)= -0.000000000000
  lambda( 96)= -0.000000000000
  lambda( 97)= -0.000000000000
  lambda( 98)= -0.000000000000
  lambda( 99)= -0.000000000000
  lambda(100)= -0.000000000000
  lambda(101)= -0.000000000000
  lambda(102)=  0.000000000000
  lambda(103)=  0.000000000000
  lambda(104)=  0.000000000000
  lambda(105)=  0.000000000000
  lambda(106)=  0.000000000000
  lambda(107)=  0.000000000000
  lambda(108)=  0.000000000000
  lambda(109)=  0.000000000000
  lambda(110)=  0.000000000000
  lambda(111)=  0.000000000000
  lambda(112)=  0.000000000000
  lambda(113)=  0.000000000000
  lambda(114)=  0.000000000000
  lambda(115)=  0.000000000000
  lambda(116)=  0.000000000000
  lambda(117)=  0.000000000000
  lambda(118)=  0.000000000000
  lambda(119)=  0.000000000000
  lambda(120)=  0.000000000000
  lambda(121)=  0.000000000000
  lambda(122)=  0.000000000000
  lambda(123)=  0.000000000000
  lambda(124)=  0.000000000000
  lambda(125)=  0.000000000000
  lambda(126)=  0.000000000000
  lambda(127)=  0.000000000000
  lambda(128)=  0.000000000000
  lambda(129)=  0.000000000000
  lambda(130)=  0.000000000000
  lambda(131)=  0.000000000000
  lambda(132)=  0.000000000000
  lambda(133)=  0.000000000000
  lambda(134)=  0.000000000000
  lambda(135)=  0.000000000000
  lambda(136)=  0.000000000000
  lambda(137)=  0.000000000000
  lambda(138)=  0.000000000000
  lambda(139)=  0.000000000000
  lambda(140)=  0.000000000000
  lambda(141)=  0.000000000000
  lambda(142)=  0.000000000000
  lambda(143)=  0.000000000000
  lambda(144)=  0.000000000000
  lambda(145)=  0.000000000000
  lambda(146)=  0.000000000000
  lambda(147)=  0.000000000000
  lambda(148)=  0.000000000000
  lambda(149)=  0.000000000000
  lambda(150)=  0.000000000000
  lambda(151)=  0.000000000000
  lambda(152)=  0.000000000000
  lambda(153)=  0.000000000000
  lambda(154)=  0.000000000000
  lambda(155)=  0.000000000000
  lambda(156)=  0.000000000000
  lambda(157)=  0.000000000000
  lambda(158)=  0.000000000000
  lambda(159)=  0.000000000000
  lambda(160)=  0.000000000000
  lambda(161)=  0.000000000000
  lambda(162)=  0.000000000000
  lambda(163)=  0.000000000000
  lambda(164)=  0.000000000000
  lambda(165)=  0.000000000000
  lambda(166)=  0.000000000000
  lambda(167)=  0.000000000000
  lambda(168)=  0.000000000000
  lambda(169)=  0.000000000000
  lambda(170)=  0.000000000000
  lambda(171)=  0.000000000000
  lambda(172)=  0.000000000000
  lambda(173)=  0.000000000000
  lambda(174)=  0.000000000000
  lambda(175)=  0.000000000000
  lambda(176)=  0.000000000000
  lambda(177)=  0.000000000000
  lambda(178)=  0.000000000000
  lambda(179)=  0.000000000000
  lambda(180)=  0.000000000000
  lambda(181)=  0.000000000000
  lambda(182)=  0.000000000000
  lambda(183)=  0.000000000000
  lambda(184)=  0.000000000000
  lambda(185)=  0.000000000000
  lambda(186)=  0.000000000000
  lambda(187)=  0.000000000000
  lambda(188)=  0.000000000000
  lambda(189)=  0.000000000000
  lambda(190)=  0.000000000000
  lambda(191)=  0.000000000000
  lambda(192)=  0.000000000000
  lambda(193)=  0.000000000000
  lambda(194)=  0.000000000000
  lambda(195)=  0.000000000000
  lambda(196)=  0.000000000000
  lambda(197)=  0.000000000000
  lambda(198)=  0.000000000000
  lambda(199)=  0.000000000000
  lambda(200)=  0.000000000000
  lambda(201)=  0.000000000000
  lambda(202)=  0.000000004823
  lambda(203)=  0.000000009027
  lambda(204)=  0.000000027098
  lambda(205)=  0.000000036359
  lambda(206)=  0.000000051635
  lambda(207)=  0.000000261869
  lambda(208)=  0.000000538845
  lambda(209)=  0.000000884039
  lambda(210)=  0.000002287956
  lambda(211)=  0.000006367077
  lambda(212)=  0.000016968648
  lambda(213)=  0.000019219615
  lambda(214)=  0.000022251095
  lambda(215)=  0.000039573748
  lambda(216)=  0.000043513899
  lambda(217)=  0.000054488389
  lambda(218)=  0.000080931592
  lambda(219)=  0.000083058831
  lambda(220)=  0.000099449656
  lambda(221)=  0.000109310778
  lambda(222)=  0.000127115242
  lambda(223)=  0.000163464347
  lambda(224)=  0.000166232072
  lambda(225)=  0.000207283513
  lambda(226)=  0.000219962638
  lambda(227)=  0.000290524941
  lambda(228)=  0.000298844693
  lambda(229)=  0.000343828895
  lambda(230)=  0.000456851363
  lambda(231)=  0.000474976205
  lambda(232)=  0.000516498735
  lambda(233)=  0.000553945496
  lambda(234)=  0.000747182289
  lambda(235)=  0.001004642128
  lambda(236)=  0.001322519157
  lambda(237)=  0.001619271777
  lambda(238)=  0.001817552540
  lambda(239)=  0.001964905479
  lambda(240)=  0.002222538650
  lambda(241)=  0.002226327475
  lambda(242)=  0.002338074693
  lambda(243)=  0.002439213250
  lambda(244)=  0.002708112277
  lambda(245)=  0.003092280116
  lambda(246)=  0.004109662866
  lambda(247)=  0.004368770529
  lambda(248)=  0.004445708802
  lambda(249)=  0.004943053336
  lambda(250)=  0.005255995894
  lambda(251)=  0.006371242201
  lambda(252)=  0.006746600411
  lambda(253)=  0.007143304593
  lambda(254)=  0.008027388850
  lambda(255)=  0.008042831262
  lambda(256)=  0.009271494084
  lambda(257)=  0.009656206311
  lambda(258)=  0.010250751242
  lambda(259)=  0.010795744774
  lambda(260)=  0.011498145140
  lambda(261)=  0.012230328817
  lambda(262)=  0.013076688726
  lambda(263)=  0.013568401190
  lambda(264)=  0.013639498182
  lambda(265)=  0.015111368550
  lambda(266)=  0.015896803891
  lambda(267)=  0.016052139757
  lambda(268)=  0.016788045339
  lambda(269)=  0.018775796713
  lambda(270)=  0.019112067708
  lambda(271)=  0.019233799446
  lambda(272)=  0.020444750559
  lambda(273)=  0.021760920502
  lambda(274)=  0.023164307215
  lambda(275)=  0.023362776044
  lambda(276)=  0.024817108606
  lambda(277)=  0.026749219941
  lambda(278)=  0.028248600364
  lambda(279)=  0.029433934058
  lambda(280)=  0.030979823594
  lambda(281)=  0.031968063805
  lambda(282)=  0.032955622462
  lambda(283)=  0.032992090939
  lambda(284)=  0.034918818655
  lambda(285)=  0.037068602008
  lambda(286)=  0.038193405039
  lambda(287)=  0.039164187015
  lambda(288)=  0.040854547432
  lambda(289)=  0.041409249193
  lambda(290)=  0.042601456634
  lambda(291)=  0.043247610075
  lambda(292)=  0.043686220112
  lambda(293)=  0.043940293734
  lambda(294)=  0.044717870180
  lambda(295)=  0.047972814153
  lambda(296)=  0.048303209527
  lambda(297)=  0.050013780189
  lambda(298)=  0.050383815655
  lambda(299)=  0.053002558788
  lambda(300)=  0.056925533252
  lambda(301)=  0.057527929888
  lambda(302)=  0.058381398151
  lambda(303)=  0.060617666745
  lambda(304)=  0.062136779312
  lambda(305)=  0.064134620555
  lambda(306)=  0.065152427529
  lambda(307)=  0.066027778088
  lambda(308)=  0.068685633304
  lambda(309)=  0.070237206849
  lambda(310)=  0.073497571915
  lambda(311)=  0.077301050473
  lambda(312)=  0.078561361785
  lambda(313)=  0.083569448009
  lambda(314)=  0.087906792488
  lambda(315)=  0.088283351182
  lambda(316)=  0.090889790469
  lambda(317)=  0.091093492933
  lambda(318)=  0.096233468314
  lambda(319)=  0.099121316311
  lambda(320)=  0.099840768502
  lambda(321)=  0.103645843847
  lambda(322)=  0.104532225446
  lambda(323)=  0.109170370551
  lambda(324)=  0.109603710450
  lambda(325)=  0.113221541408
  lambda(326)=  0.113316171431
  lambda(327)=  0.119539334128
  lambda(328)=  0.123564340984
  lambda(329)=  0.126520564108
  lambda(330)=  0.128015285692
  lambda(331)=  0.129323672045
[...]
  WF centre and spread   95  (  5.171409,  1.050206,  3.436755 )     2.18367649
  WF centre and spread   96  (  5.165152,  1.042761,  3.314820 )     2.10752674
  WF centre and spread   97  (  5.158395,  1.077489,  3.317550 )     2.11510191
  WF centre and spread   98  (  8.614413,  0.971668, -0.120936 )     2.15890957
  WF centre and spread   99  (  8.611751,  0.951789,  0.012976 )     2.12917854
  WF centre and spread  100  (  8.618543,  0.992447,  0.004087 )     2.06815131
  WF centre and spread  101  (  8.612762,  1.050206,  3.436755 )     2.18367612
  WF centre and spread  102  (  8.619019,  1.042761,  3.314820 )     2.10752753
  WF centre and spread  103  (  8.625776,  1.077489,  3.317550 )     2.11510179
  WF centre and spread  104  ( 12.053721,  0.996617, -0.063190 )     2.17997503
  WF centre and spread  105  ( 12.058904,  0.977983,  0.062668 )     2.07006727
  WF centre and spread  106  ( 12.054834,  1.018361,  0.060276 )     2.06752560
  WF centre and spread  107  ( 12.058673,  0.993805,  3.454525 )     2.19463219
  WF centre and spread  108  ( 12.056932,  0.977632,  3.331888 )     2.11186585
  WF centre and spread  109  ( 12.056984,  1.018546,  3.331668 )     2.10289453
  WF centre and spread  110  ( 10.354930,  3.987727, -0.120871 )     2.15927138
  WF centre and spread  111  ( 10.362992,  3.973200,  0.010018 )     2.09251731
  WF centre and spread  112  ( 10.354974,  4.010307,  0.006990 )     2.10542067
  WF centre and spread  113  ( 10.285968,  3.949321,  3.436450 )     2.18414793
  WF centre and spread  114  ( 10.293040,  3.921384,  3.312174 )     2.08850334
  WF centre and spread  115  ( 10.279617,  3.962191,  3.320531 )     2.13388613
  WF centre and spread  116  (  8.633739,  6.970539, -0.120984 )     2.15732246
  WF centre and spread  117  (  8.630101,  6.956590,  0.002662 )     2.07423508
  WF centre and spread  118  (  8.640657,  6.996412,  0.014497 )     2.12480361
  WF centre and spread  119  (  8.566203,  6.929753,  3.436669 )     2.18362603
  WF centre and spread  120  (  8.553537,  6.917233,  3.321743 )     2.13645930
  WF centre and spread  121  (  8.557850,  6.960246,  3.310796 )     2.08577945
  WF centre and spread  122  (  6.892085,  9.937079, -0.063194 )     2.17930512
  WF centre and spread  123  (  6.892086,  9.920241,  0.059135 )     2.06605460
  WF centre and spread  124  (  6.892086,  9.967203,  0.063814 )     2.07195944
  WF centre and spread  125  (  6.892085,  9.942512,  3.454553 )     2.19568139
  WF centre and spread  126  (  6.892085,  9.923560,  3.331536 )     2.09747161
  WF centre and spread  127  (  6.892085,  9.964342,  3.332030 )     2.11644158
  WF centre and spread  128  (  3.388592,  9.912261,  0.001511 )     2.20922976
  WF centre and spread  129  (  3.401933,  9.897496,  0.118527 )     2.09777025
  WF centre and spread  130  (  3.398572,  9.947338,  0.120665 )     2.09202848
  WF centre and spread  131  (  3.486355,  9.968139,  3.526560 )     2.18533769
  WF centre and spread  132  (  3.475824,  9.948037,  3.395987 )     2.09631879
  WF centre and spread  133  (  3.490759,  9.993161,  3.397381 )     2.08579119
  WF centre and spread  134  ( -0.000000,  9.902544,  0.080108 )     2.20484143
  WF centre and spread  135  (  0.000000,  9.889095,  0.175262 )     2.08450802
  WF centre and spread  136  (  0.000000,  9.934701,  0.188828 )     2.08218601
  WF centre and spread  137  ( -0.000000, 10.301111,  3.630317 )     2.09284465
  WF centre and spread  138  (  0.000000, 10.201612,  3.531998 )     2.00416572
  WF centre and spread  139  ( -0.000000,  9.744060,  3.810486 )     3.09996474
  WF centre and spread  140  ( -3.388592,  9.912261,  0.001511 )     2.20922967
  WF centre and spread  141  ( -3.401933,  9.897497,  0.118527 )     2.09777082
  WF centre and spread  142  ( -3.398573,  9.947338,  0.120665 )     2.09202896
  WF centre and spread  143  ( -3.486355,  9.968139,  3.526560 )     2.18533776
  WF centre and spread  144  ( -3.475824,  9.948037,  3.395987 )     2.09631905
  WF centre and spread  145  ( -3.490759,  9.993161,  3.397381 )     2.08579126
  WF centre and spread  146  (  6.892086,  3.976633, -0.185578 )     2.12729390
  WF centre and spread  147  (  6.892085,  3.963329, -0.062103 )     2.06154223
  WF centre and spread  148  (  6.892086,  3.996817, -0.062118 )     2.06183985
  WF centre and spread  149  (  6.892086,  3.976948,  3.418767 )     2.13795941
  WF centre and spread  150  (  6.892085,  3.967569,  3.297333 )     2.06649158
  WF centre and spread  151  (  6.892085,  3.992281,  3.297346 )     2.06679066
  WF centre and spread  152  (  5.150432,  6.970539, -0.120984 )     2.15732229
  WF centre and spread  153  (  5.154070,  6.956590,  0.002662 )     2.07423540
  WF centre and spread  154  (  5.143514,  6.996412,  0.014497 )     2.12480332
  WF centre and spread  155  (  5.217968,  6.929753,  3.436669 )     2.18362608
  WF centre and spread  156  (  5.230634,  6.917233,  3.321743 )     2.13645907
  WF centre and spread  157  (  5.226322,  6.960246,  3.310796 )     2.08577947
  WF centre and spread  158  (  1.685530,  6.982629,  0.079908 )     2.20432585
  WF centre and spread  159  (  1.692166,  6.961300,  0.185536 )     2.08361558
  WF centre and spread  160  (  1.690477,  7.004056,  0.178634 )     2.08459398
  WF centre and spread  161  (  2.038090,  6.823720,  3.621186 )     2.09439349
  WF centre and spread  162  (  1.549629,  7.061323,  3.810974 )     3.09230898
  WF centre and spread  163  (  1.931767,  6.802994,  3.539654 )     2.01216034
  WF centre and spread  164  (  3.429241,  3.987727, -0.120871 )     2.15927111
  WF centre and spread  165  (  3.421178,  3.973200,  0.010018 )     2.09251736
  WF centre and spread  166  (  3.429196,  4.010307,  0.006990 )     2.10542108
  WF centre and spread  167  (  3.498203,  3.949321,  3.436450 )     2.18414830
  WF centre and spread  168  (  3.491131,  3.921384,  3.312174 )     2.08850284
  WF centre and spread  169  (  3.504554,  3.962191,  3.320531 )     2.13388575
  WF centre and spread  170  (  0.000000,  4.042833,  0.001521 )     2.20971456
  WF centre and spread  171  ( -0.000000,  4.010785,  0.121765 )     2.08851741
  WF centre and spread  172  (  0.000000,  4.055105,  0.117393 )     2.10107579
  WF centre and spread  173  ( -0.000000,  3.930364,  3.526141 )     2.18524929
  WF centre and spread  174  (  0.000000,  3.902838,  3.398185 )     2.07942168
  WF centre and spread  175  (  0.000000,  3.971145,  3.395615 )     2.10125626
  WF centre and spread  176  ( -1.685530,  6.982629,  0.079908 )     2.20432549
  WF centre and spread  177  ( -1.692166,  6.961300,  0.185536 )     2.08361558
  WF centre and spread  178  ( -1.690477,  7.004056,  0.178634 )     2.08459388
  WF centre and spread  179  ( -2.038093,  6.823716,  3.621188 )     2.09438656
  WF centre and spread  180  ( -1.549626,  7.061326,  3.810974 )     3.09231422
  WF centre and spread  181  ( -1.931767,  6.802997,  3.539653 )     2.01215879
  Sum of centres and spreads (620.287693,923.164449,323.392793 )   375.77408140
 
         Spreads (Ang^2)       Omega I      =   351.914940568
        ================       Omega D      =     0.000654564
                               Omega OD     =    23.858486160
    Final Spread (Ang^2)       Omega Total  =   375.774081291
 ------------------------------------------------------------------------------
 Final centres (translated to home cell for writing xyz file)
  WF centre    1  (  0.000000,  7.959407,  4.010749 )
  WF centre    2  ( -0.000000,  7.950944,  3.952579 )
  WF centre    3  ( -0.000000,  7.965991,  3.952214 )
  WF centre    4  ( -0.000000,  7.890529,  3.916624 )
  WF centre    5  ( -0.000000,  8.024322,  3.916499 )
  WF centre    6  ( -0.000000, -0.005962,  1.695759 )
  WF centre    7  ( -0.000000,  0.024018,  1.696251 )
  WF centre    8  ( -0.000000, -0.024120,  1.696282 )
  WF centre    9  (  0.000000,  0.147674,  1.694967 )
  WF centre   10  (  0.000000, -0.140077,  1.695007 )
  WF centre   11  (  3.469828, -0.004012,  1.701524 )
  WF centre   12  (  3.470173,  0.027022,  1.698543 )
  WF centre   13  (  3.471983, -0.026156,  1.710740 )
  WF centre   14  (  3.467213,  0.143061,  1.700395 )
  WF centre   15  (  3.465008, -0.135195,  1.703018 )
  WF centre   16  (  6.892085,  0.039034,  1.684225 )
  WF centre   17  (  6.892085,  0.077523,  1.689837 )
  WF centre   18  (  6.892085, -0.151040,  1.832998 )
  WF centre   19  (  6.892085,  0.184365,  1.684925 )
  WF centre   20  (  6.892086, -0.088649,  1.682696 )
  WF centre   21  ( 10.314343, -0.004012,  1.701524 )
  WF centre   22  ( 10.313998,  0.027022,  1.698543 )
  WF centre   23  ( 10.312188, -0.026156,  1.710740 )
  WF centre   24  ( 10.316958,  0.143061,  1.700395 )
  WF centre   25  ( 10.319163, -0.135195,  1.703018 )
  WF centre   26  (  8.584761,  2.996652,  1.608961 )
  WF centre   27  (  8.581787,  3.024287,  1.618272 )
  WF centre   28  (  8.584662,  2.981145,  1.618031 )
  WF centre   29  (  8.591793,  3.146630,  1.613502 )
  WF centre   30  (  8.582254,  2.861321,  1.613885 )
  WF centre   31  (  6.892086,  5.928364,  1.608269 )
  WF centre   32  (  6.892085,  5.955769,  1.618084 )
  WF centre   33  (  6.892086,  5.907977,  1.618489 )
  WF centre   34  (  6.892086,  6.079884,  1.614329 )
  WF centre   35  (  6.892085,  5.799641,  1.613435 )
  WF centre   36  (  5.158062,  8.927094,  1.700326 )
  WF centre   37  (  5.157160,  8.955884,  1.710209 )
  WF centre   38  (  5.156631,  8.906292,  1.699522 )
  WF centre   39  (  5.162529,  9.078107,  1.702949 )
  WF centre   40  (  5.156804,  8.799084,  1.701159 )
  WF centre   41  (  1.728075,  8.953271,  1.875347 )
  WF centre   42  (  1.673655,  8.967292,  1.893840 )
  WF centre   43  (  1.719487,  8.907929,  1.887067 )
  WF centre   44  (  1.736756,  9.075263,  1.857838 )
  WF centre   45  (  1.674382,  8.815047,  1.879263 )
  WF centre   46  ( -1.728075,  8.953271,  1.875347 )
  WF centre   47  ( -1.673655,  8.967292,  1.893840 )
  WF centre   48  ( -1.719488,  8.907929,  1.887067 )
  WF centre   49  ( -1.736756,  9.075263,  1.857838 )
  WF centre   50  ( -1.674381,  8.815047,  1.879263 )
  WF centre   51  ( -5.158062,  8.927094,  1.700326 )
  WF centre   52  ( -5.157160,  8.955884,  1.710209 )
  WF centre   53  ( -5.156631,  8.906292,  1.699522 )
  WF centre   54  ( -5.162529,  9.078107,  1.702949 )
  WF centre   55  ( -5.156804,  8.799084,  1.701159 )
  WF centre   56  (  5.199410,  2.996652,  1.608961 )
  WF centre   57  (  5.202384,  3.024287,  1.618272 )
  WF centre   58  (  5.199509,  2.981145,  1.618031 )
  WF centre   59  (  5.192378,  3.146630,  1.613502 )
  WF centre   60  (  5.201917,  2.861321,  1.613885 )
  WF centre   61  (  3.482507,  5.942632,  1.683535 )
  WF centre   62  (  3.329838,  6.038355,  1.825092 )
  WF centre   63  (  3.498534,  5.935307,  1.703444 )
  WF centre   64  (  3.485365,  6.083415,  1.679335 )
  WF centre   65  (  3.485688,  5.814856,  1.682628 )
  WF centre   66  ( -0.000000,  5.960700,  1.875459 )
  WF centre   67  ( -0.000000,  5.990283,  1.880371 )
  WF centre   68  ( -0.000000,  5.999771,  1.889186 )
  WF centre   69  (  0.000000,  6.143298,  1.893011 )
  WF centre   70  ( -0.000000,  5.847149,  1.855546 )
  WF centre   71  (  1.735536,  2.999426,  1.701901 )
  WF centre   72  (  1.734568,  3.032419,  1.705037 )
  WF centre   73  (  1.737355,  2.979055,  1.703393 )
  WF centre   74  (  1.732716,  3.144536,  1.702367 )
  WF centre   75  (  1.734863,  2.864792,  1.701517 )
  WF centre   76  ( -1.735536,  2.999426,  1.701901 )
  WF centre   77  ( -1.734568,  3.032419,  1.705038 )
  WF centre   78  ( -1.737355,  2.979055,  1.703393 )
  WF centre   79  ( -1.732716,  3.144536,  1.702367 )
  WF centre   80  ( -1.734862,  2.864792,  1.701517 )
  WF centre   81  ( -3.482507,  5.942632,  1.683535 )
  WF centre   82  ( -3.329838,  6.038355,  1.825092 )
  WF centre   83  ( -3.498534,  5.935307,  1.703444 )
  WF centre   84  ( -3.485364,  6.083415,  1.679335 )
  WF centre   85  ( -3.485688,  5.814856,  1.682628 )
  WF centre   86  (  1.730450,  0.996617, -0.063190 )
  WF centre   87  (  1.725267,  0.977982,  0.062668 )
  WF centre   88  (  1.729337,  1.018361,  0.060276 )
  WF centre   89  (  1.725498,  0.993805,  3.454525 )
  WF centre   90  (  1.727239,  0.977632,  3.331888 )
  WF centre   91  (  1.727187,  1.018546,  3.331668 )
  WF centre   92  (  5.169758,  0.971668, -0.120936 )
  WF centre   93  (  5.172420,  0.951789,  0.012976 )
  WF centre   94  (  5.165628,  0.992447,  0.004087 )
  WF centre   95  (  5.171409,  1.050206,  3.436755 )
  WF centre   96  (  5.165152,  1.042761,  3.314820 )
  WF centre   97  (  5.158395,  1.077489,  3.317550 )
  WF centre   98  (  8.614413,  0.971668, -0.120936 )
  WF centre   99  (  8.611751,  0.951789,  0.012976 )
  WF centre  100  (  8.618543,  0.992447,  0.004087 )
  WF centre  101  (  8.612762,  1.050206,  3.436755 )
  WF centre  102  (  8.619019,  1.042761,  3.314820 )
  WF centre  103  (  8.625776,  1.077489,  3.317550 )
  WF centre  104  ( 12.053721,  0.996617, -0.063190 )
  WF centre  105  ( 12.058904,  0.977983,  0.062668 )
  WF centre  106  ( 12.054834,  1.018361,  0.060276 )
  WF centre  107  ( 12.058673,  0.993805,  3.454525 )
  WF centre  108  ( 12.056932,  0.977632,  3.331888 )
  WF centre  109  ( 12.056984,  1.018546,  3.331668 )
  WF centre  110  ( 10.354930,  3.987727, -0.120871 )
  WF centre  111  ( 10.362992,  3.973200,  0.010018 )
  WF centre  112  ( 10.354974,  4.010307,  0.006990 )
  WF centre  113  ( 10.285968,  3.949321,  3.436450 )
  WF centre  114  ( 10.293040,  3.921384,  3.312174 )
  WF centre  115  ( 10.279617,  3.962191,  3.320531 )
  WF centre  116  (  8.633739,  6.970539, -0.120984 )
  WF centre  117  (  8.630101,  6.956590,  0.002662 )
  WF centre  118  (  8.640657,  6.996412,  0.014497 )
  WF centre  119  (  8.566203,  6.929753,  3.436669 )
  WF centre  120  (  8.553537,  6.917233,  3.321743 )
  WF centre  121  (  8.557850,  6.960246,  3.310796 )
  WF centre  122  (  6.892085,  9.937079, -0.063194 )
  WF centre  123  (  6.892086,  9.920241,  0.059135 )
  WF centre  124  (  6.892086,  9.967203,  0.063814 )
  WF centre  125  (  6.892085,  9.942512,  3.454553 )
  WF centre  126  (  6.892085,  9.923560,  3.331536 )
  WF centre  127  (  6.892085,  9.964342,  3.332030 )
  WF centre  128  (  3.388592,  9.912261,  0.001511 )
  WF centre  129  (  3.401933,  9.897496,  0.118527 )
  WF centre  130  (  3.398572,  9.947338,  0.120665 )
  WF centre  131  (  3.486355,  9.968139,  3.526560 )
  WF centre  132  (  3.475824,  9.948037,  3.395987 )
  WF centre  133  (  3.490759,  9.993161,  3.397381 )
  WF centre  134  ( -0.000000,  9.902544,  0.080108 )
  WF centre  135  (  0.000000,  9.889095,  0.175262 )
  WF centre  136  (  0.000000,  9.934701,  0.188828 )
  WF centre  137  ( -0.000000, 10.301111,  3.630317 )
  WF centre  138  (  0.000000, 10.201612,  3.531998 )
  WF centre  139  ( -0.000000,  9.744060,  3.810486 )
  WF centre  140  ( -3.388592,  9.912261,  0.001511 )
  WF centre  141  ( -3.401933,  9.897497,  0.118527 )
  WF centre  142  ( -3.398573,  9.947338,  0.120665 )
  WF centre  143  ( -3.486355,  9.968139,  3.526560 )
  WF centre  144  ( -3.475824,  9.948037,  3.395987 )
  WF centre  145  ( -3.490759,  9.993161,  3.397381 )
  WF centre  146  (  6.892086,  3.976633, -0.185578 )
  WF centre  147  (  6.892085,  3.963329, -0.062103 )
  WF centre  148  (  6.892086,  3.996817, -0.062118 )
  WF centre  149  (  6.892086,  3.976948,  3.418767 )
  WF centre  150  (  6.892085,  3.967569,  3.297333 )
  WF centre  151  (  6.892085,  3.992281,  3.297346 )
  WF centre  152  (  5.150432,  6.970539, -0.120984 )
  WF centre  153  (  5.154070,  6.956590,  0.002662 )
  WF centre  154  (  5.143514,  6.996412,  0.014497 )
  WF centre  155  (  5.217968,  6.929753,  3.436669 )
  WF centre  156  (  5.230634,  6.917233,  3.321743 )
  WF centre  157  (  5.226322,  6.960246,  3.310796 )
  WF centre  158  (  1.685530,  6.982629,  0.079908 )
  WF centre  159  (  1.692166,  6.961300,  0.185536 )
  WF centre  160  (  1.690477,  7.004056,  0.178634 )
  WF centre  161  (  2.038090,  6.823720,  3.621186 )
  WF centre  162  (  1.549629,  7.061323,  3.810974 )
  WF centre  163  (  1.931767,  6.802994,  3.539654 )
  WF centre  164  (  3.429241,  3.987727, -0.120871 )
  WF centre  165  (  3.421178,  3.973200,  0.010018 )
  WF centre  166  (  3.429196,  4.010307,  0.006990 )
  WF centre  167  (  3.498203,  3.949321,  3.436450 )
  WF centre  168  (  3.491131,  3.921384,  3.312174 )
  WF centre  169  (  3.504554,  3.962191,  3.320531 )
  WF centre  170  (  0.000000,  4.042833,  0.001521 )
  WF centre  171  ( -0.000000,  4.010785,  0.121765 )
  WF centre  172  (  0.000000,  4.055105,  0.117393 )
  WF centre  173  ( -0.000000,  3.930364,  3.526141 )
  WF centre  174  (  0.000000,  3.902838,  3.398185 )
  WF centre  175  (  0.000000,  3.971145,  3.395615 )
  WF centre  176  ( -1.685530,  6.982629,  0.079908 )
  WF centre  177  ( -1.692166,  6.961300,  0.185536 )
  WF centre  178  ( -1.690477,  7.004056,  0.178634 )
  WF centre  179  ( -2.038093,  6.823716,  3.621188 )
  WF centre  180  ( -1.549626,  7.061326,  3.810974 )
  WF centre  181  ( -1.931767,  6.802997,  3.539653 )
 ------------------------------------------------------------------------------
 

 Wannier centres written to file 1Fe_centreconf.up_centres.xyz
  
  Omega Invariant:   1-s^2 =   351.914940568 (Ang^2)
                   -2log s =   359.701314655 (Ang^2)
                    acos^2 =   357.054096422 (Ang^2)
 Time for wannierise           45.545 (sec)

 Writing checkpoint file 1Fe_centreconf.up.chk... done

 *---------------------------------------------------------------------------*
 |                               PLOTTING                                    |
 *---------------------------------------------------------------------------*
 
   19 lattice points in Wigner-Seitz supercell:

      vector  -2  -2   0   degeneracy:  2
      vector  -2  -1   0   degeneracy:  1
      vector  -2   0   0   degeneracy:  2
      vector  -1  -2   0   degeneracy:  1
      vector  -1  -1   0   degeneracy:  1
      vector  -1   0   0   degeneracy:  1
      vector  -1   1   0   degeneracy:  1
      vector   0  -2   0   degeneracy:  2
      vector   0  -1   0   degeneracy:  1
      vector   0   0   0   degeneracy:  1
      vector   0   1   0   degeneracy:  1
      vector   0   2   0   degeneracy:  2
      vector   1  -1   0   degeneracy:  1
      vector   1   0   0   degeneracy:  1
      vector   1   1   0   degeneracy:  1
      vector   1   2   0   degeneracy:  1
      vector   2   0   0   degeneracy:  2
      vector   2   1   0   degeneracy:  1
      vector   2   2   0   degeneracy:  2
  tot =       16.000
  mp_grid product =           16
 
 Calculating interpolated band-structure
 
 Time to calculate interpolated band structure      23.337 (sec)
 
 Time for plotting             26.733 (sec)
 Total Execution Time         395.470 (sec)

 *===========================================================================*
 |                             TIMING INFORMATION                            |
 *===========================================================================*
 |    Tag                                                Ncalls      Time (s)|
 |---------------------------------------------------------------------------|
 |kmesh: get                                        :         1         0.022|
 |overlap: allocate                                 :         1         0.008|
 |overlap: read                                     :         1        62.645|
 |dis: main                                         :         1       260.424|
 |wann: main                                        :         1        45.545|
 |plot: main                                        :         1        26.733|
 *---------------------------------------------------------------------------*
 
 All done: wannier90 exiting
