
     Program PWSCF v.6.8 starts on 20Jul2023 at 18:51: 4 

     This program is part of the open-source Quantum ESPRESSO suite
     for quantum simulation of materials; please cite
         "P. Giannozzi et al., J. Phys.:Condens. Matter 21 395502 (2009);
         "P. Giannozzi et al., J. Phys.:Condens. Matter 29 465901 (2017);
         "P. Giannozzi et al., J. Chem. Phys. 152 154105 (2020);
          URL http://www.quantum-espresso.org", 
     in publications or presentations arising from this work. More details at
     http://www.quantum-espresso.org/quote

     Parallel version (MPI & OpenMP), running on      80 processor cores
     Number of MPI processes:                80
     Threads/MPI process:                     1

     MPI processes distributed on     2 nodes
     R & G space division:  proc/nbgrp/npool/nimage =      80
     182413 MiB available memory on the printing compute node when the environment starts
 
     Reading input from infcr.scf.in

     Current dimensions of program PWSCF are:
     Max number of different atomic species (ntypx) = 10
     Max number of k-points (npk) =  40000
     Max angular momentum in pseudopotentials (lmaxx) =  4
     file Cr.pbe-spn-kjpaw_psl.1.0.0.UPF: wavefunction(s)  3S 3P 3D renormalized
     file Nb.pbe-spn-kjpaw_psl.1.0.0.UPF: wavefunction(s)  4S 4P 4D renormalized
     file Se.pbe-n-kjpaw_psl.1.0.0.UPF: wavefunction(s)  4S renormalized

     Subspace diagonalization in iterative solution of the eigenvalue problem:
     one sub-group per band group will be used
     scalapack distributed-memory algorithm (size of sub-group:  8*  8 procs)

 
     Parallelization info
     --------------------
     sticks:   dense  smooth     PW     G-vecs:    dense   smooth      PW
     Min         467     174     45               125329    28766    3799
     Max         468     175     46               125336    28783    3810
     Sum       37435   13999   3643             10026649  2302489  304271
 
     Using Slab Decomposition
 


     bravais-lattice index     =            4
     lattice parameter (alat)  =      26.0483  a.u.
     unit-cell volume          =   26240.8884 (a.u.)^3
     number of atoms/cell      =           52
     number of atomic types    =            3
     number of electrons       =       456.00
     number of Kohn-Sham states=          274
     kinetic-energy cutoff     =      75.0000  Ry
     charge density cutoff     =     800.0000  Ry
     scf convergence threshold =      1.0E-07
     mixing beta               =       0.7000
     number of iterations used =            8  local-TF  mixing
     Exchange-correlation= SLA  PW   PBX  PBC
                           (   1   4   3   4   0   0   0)

     celldm(1)=  26.048308  celldm(2)=   0.000000  celldm(3)=   1.714389
     celldm(4)=   0.000000  celldm(5)=   0.000000  celldm(6)=   0.000000

     crystal axes: (cart. coord. in units of alat)
               a(1) = (   1.000000   0.000000   0.000000 )  
               a(2) = (  -0.500000   0.866025   0.000000 )  
               a(3) = (   0.000000   0.000000   1.714389 )  

     reciprocal axes: (cart. coord. in units 2 pi/alat)
               b(1) = (  1.000000  0.577350  0.000000 )  
               b(2) = (  0.000000  1.154701  0.000000 )  
               b(3) = (  0.000000  0.000000  0.583298 )  


     PseudoPot. # 1 for Cr read from file:
     /ptmp/jojaibal/YSR_Project/Cr.pbe-spn-kjpaw_psl.1.0.0.UPF
     MD5 check sum: 7e2868eaf0e426e74b90ebb04087dc43
     Pseudo is Projector augmented-wave + core cor, Zval = 14.0
     Generated using &quot;atomic&quot; code by A. Dal Corso  v.6.3
     Shape of augmentation charge: PSQ
     Using radial grid of 1183 points,  6 beta functions with: 
                l(1) =   0
                l(2) =   0
                l(3) =   1
                l(4) =   1
                l(5) =   2
                l(6) =   2
     Q(r) pseudized with 0 coefficients 


     PseudoPot. # 2 for Nb read from file:
     /ptmp/jojaibal/YSR_Project/Nb.pbe-spn-kjpaw_psl.1.0.0.UPF
     MD5 check sum: dcedcbb129af9a7271e4748e5febedb1
     Pseudo is Projector augmented-wave + core cor, Zval = 13.0
     Generated using &quot;atomic&quot; code by A. Dal Corso  v.6.2.2
     Shape of augmentation charge: PSQ
     Using radial grid of 1227 points,  6 beta functions with: 
                l(1) =   0
                l(2) =   0
                l(3) =   1
                l(4) =   1
                l(5) =   2
                l(6) =   2
     Q(r) pseudized with 0 coefficients 


     PseudoPot. # 3 for Se read from file:
     /ptmp/jojaibal/YSR_Project/Se.pbe-n-kjpaw_psl.1.0.0.UPF
     MD5 check sum: 12232cb78b362a7b0fca8da9cb95fd5e
     Pseudo is Projector augmented-wave + core cor, Zval =  6.0
     Generated using &quot;atomic&quot; code by A. Dal Corso  v.6.3
     Shape of augmentation charge: PSQ
     Using radial grid of 1211 points,  4 beta functions with: 
                l(1) =   0
                l(2) =   0
                l(3) =   1
                l(4) =   1
     Q(r) pseudized with 0 coefficients 


     atomic species   valence    mass     pseudopotential
        Cr            14.00    51.99610     Cr( 1.00)
        Nb            13.00    92.90638     Nb( 1.00)
        Se             6.00    78.96000     Se( 1.00)

     Starting magnetic structure 
     atomic species   magnetization
        Cr           0.500
        Nb           0.000
        Se           0.000


     Simplified LDA+U calculation (l_max = 2) with parameters (eV):
     atomic species    L          U    alpha       J0     beta
        Cr             2     4.0000   0.0000   0.0000   0.0000



     No symmetry found



   Cartesian axes

     site n.     atom                  positions (alat units)
         1           Cr  tau(   1) = (  -0.0000000   0.5773503   0.2860517  )
         2           Cr  tau(   2) = (   0.2466667   0.5773503   0.2860517  )
         3           Cr  tau(   3) = (   0.5166667   0.5773503   0.2860517  )
         4           Cr  tau(   4) = (  -0.2333333   0.5773503   0.2860517  )
         5           Nb  tau(   5) = (   0.0000000   0.0000000   0.1229160  )
         6           Se  tau(   6) = (   0.1254089   0.0724049   0.0010778  )
         7           Se  tau(   7) = (   0.1251714   0.0722677   0.2449858  )
         8           Nb  tau(   8) = (   0.2517673   0.0002084   0.1234554  )
         9           Se  tau(   9) = (   0.3747267   0.0705210  -0.0026703  )
        10           Se  tau(  10) = (   0.3744687   0.0773147   0.2432424  )
        11           Nb  tau(  11) = (   0.5000000   0.0039564   0.1214542  )
        12           Se  tau(  12) = (   0.6252733   0.0705210  -0.0026703  )
        13           Se  tau(  13) = (   0.6255313   0.0773147   0.2432424  )
        14           Nb  tau(  14) = (   0.7482327   0.0002084   0.1234554  )
        15           Se  tau(  15) = (   0.8745911   0.0724049   0.0010778  )
        16           Se  tau(  16) = (   0.8748286   0.0722677   0.2449858  )
        17           Nb  tau(  17) = (   0.6227459   0.2178078   0.1170668  )
        18           Se  tau(  18) = (   0.7515637   0.2892623  -0.0026703  )
        19           Se  tau(  19) = (   0.7458091   0.2856421   0.2432424  )
        20           Nb  tau(  20) = (   0.5000000   0.4304099   0.1170668  )
        21           Se  tau(  21) = (   0.6262904   0.5062421  -0.0026703  )
        22           Se  tau(  22) = (   0.6202779   0.5030686   0.2432424  )
        23           Nb  tau(  23) = (   0.3742968   0.6478843   0.1234554  )
        24           Se  tau(  24) = (   0.5000000   0.7212157   0.0010778  )
        25           Se  tau(  25) = (   0.5000000   0.7214900   0.2449858  )
        26           Nb  tau(  26) = (   0.1252411   0.6496583   0.1347264  )
        27           Se  tau(  27) = (   0.2466517   0.7197547   0.0051095  )
        28           Se  tau(  28) = (   0.2537864   0.7238739   0.2493858  )
        29           Nb  tau(  29) = (  -0.1252412   0.6496583   0.1347264  )
        30           Se  tau(  30) = (   0.0000000   0.7186156   0.0095953  )
        31           Se  tau(  31) = (   0.0000000   0.7417567   0.2570242  )
        32           Nb  tau(  32) = (  -0.3742968   0.6478843   0.1234554  )
        33           Se  tau(  33) = (  -0.2466517   0.7197547   0.0051095  )
        34           Se  tau(  34) = (  -0.2537864   0.7238739   0.2493858  )
        35           Nb  tau(  35) = (   0.3772541   0.2178078   0.1170668  )
        36           Se  tau(  36) = (   0.5000000   0.2886751  -0.0074067  )
        37           Se  tau(  37) = (   0.5000000   0.2886751   0.2418116  )
        38           Nb  tau(  38) = (   0.2534264   0.4310345   0.1214542  )
        39           Se  tau(  39) = (   0.3737096   0.5062421  -0.0026703  )
        40           Se  tau(  40) = (   0.3797221   0.5030686   0.2432424  )
        41           Nb  tau(  41) = (  -0.0000000   0.4327342   0.1347264  )
        42           Se  tau(  42) = (   0.1223393   0.5067176   0.0095953  )
        43           Se  tau(  43) = (   0.1423801   0.4951471   0.2570242  )
        44           Nb  tau(  44) = (   0.1260641   0.2179327   0.1234554  )
        45           Se  tau(  45) = (   0.2484363   0.2892623  -0.0026703  )
        46           Se  tau(  46) = (   0.2541909   0.2856421   0.2432424  )
        47           Nb  tau(  47) = (  -0.1260641   0.2179327   0.1234554  )
        48           Se  tau(  48) = (   0.0000000   0.2925415   0.0051095  )
        49           Se  tau(  49) = (   0.0000000   0.2843030   0.2493858  )
        50           Nb  tau(  50) = (  -0.2534264   0.4310345   0.1214542  )
        51           Se  tau(  51) = (  -0.1223393   0.5067176   0.0095953  )
        52           Se  tau(  52) = (  -0.1423801   0.4951471   0.2570242  )

     number of k points=    20  Methfessel-Paxton smearing, width (Ry)=  0.0200
                       cart. coord. in units 2pi/alat
        k(    1) = (   0.0000000   0.0000000   0.0000000), wk =   0.0277778
        k(    2) = (   0.0000000   0.1924501   0.0000000), wk =   0.0555556
        k(    3) = (   0.0000000   0.3849002   0.0000000), wk =   0.0555556
        k(    4) = (   0.0000000  -0.5773503   0.0000000), wk =   0.0277778
        k(    5) = (   0.1666667   0.2886751   0.0000000), wk =   0.0555556
        k(    6) = (   0.1666667   0.4811252   0.0000000), wk =   0.0555556
        k(    7) = (   0.3333333   0.5773503   0.0000000), wk =   0.0555556
        k(    8) = (  -0.1666667   0.0962250   0.0000000), wk =   0.0555556
        k(    9) = (   0.1666667   0.0962250   0.0000000), wk =   0.0555556
        k(   10) = (  -0.3333333   0.1924501   0.0000000), wk =   0.0555556
        k(   11) = (   0.3333333   0.1924501   0.0000000), wk =   0.0555556
        k(   12) = (   0.5000000  -0.2886751   0.0000000), wk =   0.0277778
        k(   13) = (  -0.5000000  -0.2886751   0.0000000), wk =   0.0277778
        k(   14) = (  -0.1666667   0.2886751   0.0000000), wk =   0.0555556
        k(   15) = (   0.3333333  -0.0000000   0.0000000), wk =   0.0555556
        k(   16) = (  -0.1666667   0.4811252   0.0000000), wk =   0.0555556
        k(   17) = (  -0.3333333   0.3849002   0.0000000), wk =   0.0555556
        k(   18) = (   0.5000000   0.0962250   0.0000000), wk =   0.0555556
        k(   19) = (  -0.3333333  -0.3849002   0.0000000), wk =   0.0555556
        k(   20) = (   0.5000000  -0.0962250   0.0000000), wk =   0.0555556

     Dense  grid: 10026649 G-vectors     FFT dimensions: ( 240, 240, 405)

     Smooth grid:  2302489 G-vectors     FFT dimensions: ( 144, 144, 250)

     Estimated max dynamical RAM per process >       1.23 GB

     Estimated total dynamical RAM >      98.06 GB
     Generating pointlists ...
     new r_m :   0.0520 (alat units)  1.3537 (a.u.) for type    1
     new r_m :   0.0770 (alat units)  2.0050 (a.u.) for type    2
     new r_m :   0.0520 (alat units)  1.3537 (a.u.) for type    3

     Initial potential from superposition of free atoms

     starting charge  455.97355, renormalised to  456.00000

     negative rho (up, down):  1.812E-03 1.006E-03
     Number of +U iterations with fixed ns =  0
     Starting occupations:
 --- enter write_ns ---
 LDA+U parameters:
U( 1)     =  4.00000000
atom    1   Tr[ns(na)] (up, down, total) =   5.00000  0.00000  5.00000
   spin  1
    eigenvalues: 
  1.000  1.000  1.000  1.000  1.000
    eigenvectors:
  1.000  0.000  0.000  0.000  0.000
  0.000  1.000  0.000  0.000  0.000
  0.000  0.000  1.000  0.000  0.000
  0.000  0.000  0.000  1.000  0.000
  0.000  0.000  0.000  0.000  1.000
    occupations:
  1.000  0.000  0.000  0.000  0.000
  0.000  1.000  0.000  0.000  0.000
  0.000  0.000  1.000  0.000  0.000
  0.000  0.000  0.000  1.000  0.000
  0.000  0.000  0.000  0.000  1.000
   spin  2
    eigenvalues: 
  0.000  0.000  0.000  0.000  0.000
    eigenvectors:
  1.000  0.000  0.000  0.000  0.000
  0.000  1.000  0.000  0.000  0.000
  0.000  0.000  1.000  0.000  0.000
  0.000  0.000  0.000  1.000  0.000
  0.000  0.000  0.000  0.000  1.000
    occupations:
  0.000  0.000  0.000  0.000  0.000
  0.000  0.000  0.000  0.000  0.000
  0.000  0.000  0.000  0.000  0.000
  0.000  0.000  0.000  0.000  0.000
  0.000  0.000  0.000  0.000  0.000
atomic mag. moment =   5.00000
atom    2   Tr[ns(na)] (up, down, total) =   5.00000  0.00000  5.00000
   spin  1
    eigenvalues: 
  1.000  1.000  1.000  1.000  1.000
    eigenvectors:
  1.000  0.000  0.000  0.000  0.000
  0.000  1.000  0.000  0.000  0.000
  0.000  0.000  1.000  0.000  0.000
  0.000  0.000  0.000  1.000  0.000
  0.000  0.000  0.000  0.000  1.000
    occupations:
  1.000  0.000  0.000  0.000  0.000
  0.000  1.000  0.000  0.000  0.000
  0.000  0.000  1.000  0.000  0.000
  0.000  0.000  0.000  1.000  0.000
  0.000  0.000  0.000  0.000  1.000
   spin  2
    eigenvalues: 
  0.000  0.000  0.000  0.000  0.000
    eigenvectors:
  1.000  0.000  0.000  0.000  0.000
  0.000  1.000  0.000  0.000  0.000
  0.000  0.000  1.000  0.000  0.000
  0.000  0.000  0.000  1.000  0.000
  0.000  0.000  0.000  0.000  1.000
    occupations:
  0.000  0.000  0.000  0.000  0.000
  0.000  0.000  0.000  0.000  0.000
  0.000  0.000  0.000  0.000  0.000
  0.000  0.000  0.000  0.000  0.000
  0.000  0.000  0.000  0.000  0.000
atomic mag. moment =   5.00000
atom    3   Tr[ns(na)] (up, down, total) =   5.00000  0.00000  5.00000
   spin  1
    eigenvalues: 
  1.000  1.000  1.000  1.000  1.000
    eigenvectors:
  1.000  0.000  0.000  0.000  0.000
  0.000  1.000  0.000  0.000  0.000
  0.000  0.000  1.000  0.000  0.000
  0.000  0.000  0.000  1.000  0.000
  0.000  0.000  0.000  0.000  1.000
    occupations:
  1.000  0.000  0.000  0.000  0.000
  0.000  1.000  0.000  0.000  0.000
  0.000  0.000  1.000  0.000  0.000
  0.000  0.000  0.000  1.000  0.000
  0.000  0.000  0.000  0.000  1.000
   spin  2
    eigenvalues: 
  0.000  0.000  0.000  0.000  0.000
    eigenvectors:
  1.000  0.000  0.000  0.000  0.000
  0.000  1.000  0.000  0.000  0.000
  0.000  0.000  1.000  0.000  0.000
  0.000  0.000  0.000  1.000  0.000
  0.000  0.000  0.000  0.000  1.000
    occupations:
  0.000  0.000  0.000  0.000  0.000
  0.000  0.000  0.000  0.000  0.000
  0.000  0.000  0.000  0.000  0.000
  0.000  0.000  0.000  0.000  0.000
  0.000  0.000  0.000  0.000  0.000
atomic mag. moment =   5.00000
atom    4   Tr[ns(na)] (up, down, total) =   5.00000  0.00000  5.00000
   spin  1
    eigenvalues: 
  1.000  1.000  1.000  1.000  1.000
    eigenvectors:
  1.000  0.000  0.000  0.000  0.000
  0.000  1.000  0.000  0.000  0.000
  0.000  0.000  1.000  0.000  0.000
  0.000  0.000  0.000  1.000  0.000
  0.000  0.000  0.000  0.000  1.000
    occupations:
  1.000  0.000  0.000  0.000  0.000
  0.000  1.000  0.000  0.000  0.000
  0.000  0.000  1.000  0.000  0.000
  0.000  0.000  0.000  1.000  0.000
  0.000  0.000  0.000  0.000  1.000
   spin  2
    eigenvalues: 
  0.000  0.000  0.000  0.000  0.000
    eigenvectors:
  1.000  0.000  0.000  0.000  0.000
  0.000  1.000  0.000  0.000  0.000
  0.000  0.000  1.000  0.000  0.000
  0.000  0.000  0.000  1.000  0.000
  0.000  0.000  0.000  0.000  1.000
    occupations:
  0.000  0.000  0.000  0.000  0.000
  0.000  0.000  0.000  0.000  0.000
  0.000  0.000  0.000  0.000  0.000
  0.000  0.000  0.000  0.000  0.000
  0.000  0.000  0.000  0.000  0.000
atomic mag. moment =   5.00000
N of occupied +U levels =   20.000000
 --- exit write_ns ---
 Atomic wfc used for LDA+U Projector are NOT orthogonalized
     Starting wfcs are  376 randomized atomic wfcs
     Checking if some PAW data can be deallocated... 

     total cpu time spent up to now is      155.0 secs

     Self-consistent Calculation

     iteration #  1     ecut=    75.00 Ry     beta= 0.70
     Davidson diagonalization with overlap
     ethr =  1.00E-02,  avg # of iterations =  2.2
 --- enter write_ns ---
 LDA+U parameters:
U( 1)     =  4.00000000
atom    1   Tr[ns(na)] (up, down, total) =   4.91674  0.53546  5.45220
   spin  1
    eigenvalues: 
  0.977  0.978  0.978  0.991  0.992
    eigenvectors:
  0.060  0.305  0.629  0.001  0.005
  0.012  0.005  0.008  0.711  0.265
  0.022  0.002  0.007  0.258  0.711
  0.503  0.424  0.048  0.009  0.016
  0.403  0.264  0.308  0.021  0.003
    occupations:
  0.978  0.000  0.001 -0.000 -0.000
  0.000  0.991  0.000  0.000 -0.002
  0.001  0.000  0.992 -0.002  0.000
 -0.000  0.000 -0.002  0.978  0.001
 -0.000 -0.002  0.000  0.001  0.978
   spin  2
    eigenvalues: 
  0.069  0.077  0.106  0.137  0.146
    eigenvectors:
  0.003  0.000  0.990  0.003  0.004
  0.992  0.000  0.004  0.001  0.002
  0.000  0.997  0.000  0.002  0.001
  0.001  0.001  0.001  0.938  0.058
  0.004  0.002  0.005  0.055  0.934
    occupations:
  0.106 -0.002 -0.000  0.001  0.003
 -0.002  0.070 -0.000  0.002  0.004
 -0.000 -0.000  0.078 -0.002 -0.003
  0.001  0.002 -0.002  0.137 -0.002
  0.003  0.004 -0.003 -0.002  0.145
atomic mag. moment =   4.38129
atom    2   Tr[ns(na)] (up, down, total) =   4.88075  0.95608  5.83683
   spin  1
    eigenvalues: 
  0.954  0.967  0.982  0.987  0.990
    eigenvectors:
  0.129  0.002  0.792  0.063  0.014
  0.044  0.007  0.106  0.257  0.586
  0.014  0.055  0.025  0.534  0.372
  0.002  0.936  0.013  0.042  0.008
  0.812  0.000  0.064  0.104  0.020
    occupations:
  0.979 -0.001 -0.001 -0.001  0.010
 -0.001  0.987 -0.003  0.001  0.007
 -0.001 -0.003  0.986  0.004  0.003
 -0.001  0.001  0.004  0.969  0.001
  0.010  0.007  0.003  0.001  0.960
   spin  2
    eigenvalues: 
  0.110  0.141  0.163  0.246  0.296
    eigenvectors:
  0.026  0.905  0.006  0.001  0.063
  0.495  0.003  0.502  0.000  0.001
  0.479  0.030  0.490  0.000  0.000
  0.000  0.004  0.000  0.851  0.144
  0.001  0.058  0.002  0.148  0.792
    occupations:
  0.150 -0.006  0.002  0.012 -0.036
 -0.006  0.137  0.026 -0.002  0.003
  0.002  0.026  0.137 -0.000  0.001
  0.012 -0.002 -0.000  0.253 -0.015
 -0.036  0.003  0.001 -0.015  0.279
atomic mag. moment =   3.92467
atom    3   Tr[ns(na)] (up, down, total) =   4.89147  0.92428  5.81575
   spin  1
    eigenvalues: 
  0.959  0.969  0.984  0.989  0.991
    eigenvectors:
  0.082  0.013  0.718  0.103  0.084
  0.113  0.056  0.175  0.031  0.626
  0.041  0.106  0.029  0.624  0.200
  0.004  0.821  0.075  0.100  0.001
  0.761  0.004  0.003  0.142  0.089
    occupations:
  0.983  0.000 -0.000 -0.001 -0.008
  0.000  0.985  0.005 -0.003  0.009
 -0.000  0.005  0.986  0.005 -0.005
 -0.001 -0.003  0.005  0.972 -0.003
 -0.008  0.009 -0.005 -0.003  0.966
   spin  2
    eigenvalues: 
  0.107  0.129  0.164  0.241  0.284
    eigenvectors:
  0.065  0.755  0.100  0.000  0.081
  0.488  0.001  0.463  0.047  0.001
  0.444  0.141  0.375  0.025  0.015
  0.002  0.000  0.054  0.841  0.103
  0.001  0.103  0.008  0.087  0.801
    occupations:
  0.144  0.010  0.003  0.010  0.041
  0.010  0.140 -0.030  0.016 -0.010
  0.003 -0.030  0.137 -0.004  0.020
  0.010  0.016 -0.004  0.241  0.013
  0.041 -0.010  0.020  0.013  0.263
atomic mag. moment =   3.96719
atom    4   Tr[ns(na)] (up, down, total) =   4.87980  1.06387  5.94366
   spin  1
    eigenvalues: 
  0.948  0.969  0.982  0.989  0.991
    eigenvectors:
  0.159  0.006  0.346  0.406  0.083
  0.046  0.052  0.303  0.003  0.595
  0.065  0.056  0.254  0.334  0.291
  0.002  0.884  0.096  0.016  0.001
  0.728  0.002  0.001  0.240  0.029
    occupations:
  0.980  0.000 -0.002 -0.001 -0.014
  0.000  0.985  0.006 -0.003  0.007
 -0.002  0.006  0.984  0.003 -0.008
 -0.001 -0.003  0.003  0.971 -0.002
 -0.014  0.007 -0.008 -0.002  0.960
   spin  2
    eigenvalues: 
  0.092  0.129  0.217  0.278  0.347
    eigenvectors:
  0.001  0.825  0.027  0.004  0.143
  0.551  0.009  0.398  0.040  0.002
  0.440  0.013  0.521  0.022  0.004
  0.006  0.004  0.052  0.795  0.143
  0.002  0.148  0.002  0.140  0.707
    occupations:
  0.163  0.012 -0.003  0.020  0.073
  0.012  0.150 -0.062  0.020  0.002
 -0.003 -0.062  0.163  0.002  0.018
  0.020  0.020  0.002  0.283  0.019
  0.073  0.002  0.018  0.019  0.304
atomic mag. moment =   3.81593
N of occupied +U levels =   23.048433
 --- exit write_ns ---

     negative rho (up, down):  2.901E-03 1.391E-01

     total cpu time spent up to now is      403.5 secs

     total energy              =  -12399.31506372 Ry
     estimated scf accuracy    <       6.01926838 Ry

     total magnetization       =    18.06 Bohr mag/cell
     absolute magnetization    =    20.55 Bohr mag/cell

     iteration #  2     ecut=    75.00 Ry     beta= 0.70
     Davidson diagonalization with overlap
     ethr =  1.32E-03,  avg # of iterations =  2.0

     negative rho (up, down):  6.915E-05 3.368E-02

     total cpu time spent up to now is      638.9 secs

     total energy              =  -12400.40668314 Ry
     estimated scf accuracy    <       2.38464050 Ry

     total magnetization       =    13.68 Bohr mag/cell
     absolute magnetization    =    18.66 Bohr mag/cell

     iteration #  3     ecut=    75.00 Ry     beta= 0.70
     Davidson diagonalization with overlap
     ethr =  5.23E-04,  avg # of iterations =  1.1

     negative rho (up, down):  1.780E-06 1.054E-05

     total cpu time spent up to now is      826.0 secs

     total energy              =  -12400.32393608 Ry
     estimated scf accuracy    <       0.94479430 Ry

     total magnetization       =    13.87 Bohr mag/cell
     absolute magnetization    =    19.02 Bohr mag/cell

     iteration #  4     ecut=    75.00 Ry     beta= 0.70
     Davidson diagonalization with overlap
     ethr =  2.07E-04,  avg # of iterations =  3.5

     negative rho (up, down):  1.422E-06 5.397E-04

     total cpu time spent up to now is     1060.1 secs

     total energy              =  -12400.38742107 Ry
     estimated scf accuracy    <       0.16280172 Ry

     total magnetization       =    13.38 Bohr mag/cell
     absolute magnetization    =    19.63 Bohr mag/cell

     iteration #  5     ecut=    75.00 Ry     beta= 0.70
     Davidson diagonalization with overlap
     ethr =  3.57E-05,  avg # of iterations = 12.3

     negative rho (up, down):  1.185E-06 1.564E-06

     total cpu time spent up to now is     1395.5 secs

     total energy              =  -12400.40123747 Ry
     estimated scf accuracy    <       0.08097730 Ry

     total magnetization       =    13.22 Bohr mag/cell
     absolute magnetization    =    19.46 Bohr mag/cell

     iteration #  6     ecut=    75.00 Ry     beta= 0.70
     Davidson diagonalization with overlap
     ethr =  1.78E-05,  avg # of iterations =  2.0

     negative rho (up, down):  1.158E-06 1.071E-06

     total cpu time spent up to now is     1602.3 secs

     total energy              =  -12400.39770392 Ry
     estimated scf accuracy    <       0.05463344 Ry

     total magnetization       =    12.89 Bohr mag/cell
     absolute magnetization    =    19.33 Bohr mag/cell

     iteration #  7     ecut=    75.00 Ry     beta= 0.70
     Davidson diagonalization with overlap
     ethr =  1.20E-05,  avg # of iterations =  1.7

     negative rho (up, down):  1.490E-06 1.111E-04

     total cpu time spent up to now is     1795.2 secs

     total energy              =  -12400.39481106 Ry
     estimated scf accuracy    <       0.02892844 Ry

     total magnetization       =    12.96 Bohr mag/cell
     absolute magnetization    =    19.41 Bohr mag/cell

     iteration #  8     ecut=    75.00 Ry     beta= 0.70
     Davidson diagonalization with overlap
     c_bands:  2 eigenvalues not converged
     c_bands:  1 eigenvalues not converged
     c_bands:  1 eigenvalues not converged
     c_bands:  2 eigenvalues not converged
     c_bands:  1 eigenvalues not converged
     ethr =  6.34E-06,  avg # of iterations =  6.5

     negative rho (up, down):  2.390E-03 6.792E-03

     total cpu time spent up to now is     2023.7 secs

     total energy              =  -12400.39263131 Ry
     estimated scf accuracy    <       0.01904120 Ry

     total magnetization       =    12.82 Bohr mag/cell
     absolute magnetization    =    19.39 Bohr mag/cell

     iteration #  9     ecut=    75.00 Ry     beta= 0.70
     Davidson diagonalization with overlap
     c_bands:  1 eigenvalues not converged
     c_bands:  2 eigenvalues not converged
     ethr =  4.18E-06,  avg # of iterations =  7.5

     negative rho (up, down):  2.575E-02 3.142E-02

     total cpu time spent up to now is     2255.9 secs

     total energy              =  -12400.39236025 Ry
     estimated scf accuracy    <       0.00888419 Ry

     total magnetization       =    12.78 Bohr mag/cell
     absolute magnetization    =    19.45 Bohr mag/cell

     iteration # 10     ecut=    75.00 Ry     beta= 0.70
     Davidson diagonalization with overlap
     c_bands:  1 eigenvalues not converged
     c_bands:  1 eigenvalues not converged
     c_bands:  1 eigenvalues not converged
     c_bands:  1 eigenvalues not converged
     c_bands:  2 eigenvalues not converged
     c_bands:  1 eigenvalues not converged
     c_bands:  1 eigenvalues not converged
     c_bands:  1 eigenvalues not converged
     c_bands:  1 eigenvalues not converged
     c_bands:  1 eigenvalues not converged
     c_bands:  1 eigenvalues not converged
     ethr =  1.95E-06,  avg # of iterations = 13.9

     negative rho (up, down):  2.305E-02 2.654E-02

     total cpu time spent up to now is     2533.2 secs

     total energy              =  -12400.39255081 Ry
     estimated scf accuracy    <       0.00415430 Ry

     total magnetization       =    12.70 Bohr mag/cell
     absolute magnetization    =    19.54 Bohr mag/cell

     iteration # 11     ecut=    75.00 Ry     beta= 0.70
     Davidson diagonalization with overlap
     c_bands:  1 eigenvalues not converged
     ethr =  9.11E-07,  avg # of iterations =  2.4

     negative rho (up, down):  1.698E-02 1.837E-02

     total cpu time spent up to now is     2728.6 secs

     total energy              =  -12400.39313210 Ry
     estimated scf accuracy    <       0.00170371 Ry

     total magnetization       =    12.65 Bohr mag/cell
     absolute magnetization    =    19.61 Bohr mag/cell

     iteration # 12     ecut=    75.00 Ry     beta= 0.70
     Davidson diagonalization with overlap
     ethr =  3.74E-07,  avg # of iterations =  2.0

     negative rho (up, down):  1.028E-02 1.113E-02

     total cpu time spent up to now is     2935.4 secs

     total energy              =  -12400.39334432 Ry
     estimated scf accuracy    <       0.00045325 Ry

     total magnetization       =    12.54 Bohr mag/cell
     absolute magnetization    =    19.65 Bohr mag/cell

     iteration # 13     ecut=    75.00 Ry     beta= 0.70
     Davidson diagonalization with overlap
     ethr =  9.94E-08,  avg # of iterations =  2.3

     negative rho (up, down):  4.940E-03 5.145E-03

     total cpu time spent up to now is     3150.0 secs

     total energy              =  -12400.39335475 Ry
     estimated scf accuracy    <       0.00013857 Ry

     total magnetization       =    12.53 Bohr mag/cell
     absolute magnetization    =    19.67 Bohr mag/cell

     iteration # 14     ecut=    75.00 Ry     beta= 0.70
     Davidson diagonalization with overlap
     ethr =  3.04E-08,  avg # of iterations =  3.4

     negative rho (up, down):  2.832E-03 2.915E-03

     total cpu time spent up to now is     3374.2 secs

     total energy              =  -12400.39335687 Ry
     estimated scf accuracy    <       0.00004729 Ry

     total magnetization       =    12.52 Bohr mag/cell
     absolute magnetization    =    19.67 Bohr mag/cell

     iteration # 15     ecut=    75.00 Ry     beta= 0.70
     Davidson diagonalization with overlap
     ethr =  1.04E-08,  avg # of iterations =  3.8

     negative rho (up, down):  1.845E-03 1.933E-03

     total cpu time spent up to now is     3596.5 secs

     total energy              =  -12400.39339067 Ry
     estimated scf accuracy    <       0.00001804 Ry

     total magnetization       =    12.52 Bohr mag/cell
     absolute magnetization    =    19.67 Bohr mag/cell

     iteration # 16     ecut=    75.00 Ry     beta= 0.70
     Davidson diagonalization with overlap
     ethr =  3.96E-09,  avg # of iterations =  4.9

     negative rho (up, down):  1.528E-03 1.598E-03

     total cpu time spent up to now is     3839.0 secs

     total energy              =  -12400.39340305 Ry
     estimated scf accuracy    <       0.00000525 Ry

     total magnetization       =    12.51 Bohr mag/cell
     absolute magnetization    =    19.67 Bohr mag/cell

     iteration # 17     ecut=    75.00 Ry     beta= 0.70
     Davidson diagonalization with overlap
     c_bands:  1 eigenvalues not converged
     ethr =  1.15E-09,  avg # of iterations =  5.8

     negative rho (up, down):  1.162E-03 1.255E-03

     total cpu time spent up to now is     4097.5 secs

     total energy              =  -12400.39341574 Ry
     estimated scf accuracy    <       0.00000171 Ry

     total magnetization       =    12.50 Bohr mag/cell
     absolute magnetization    =    19.67 Bohr mag/cell

     iteration # 18     ecut=    75.00 Ry     beta= 0.70
     Davidson diagonalization with overlap
     c_bands:  1 eigenvalues not converged
     ethr =  3.76E-10,  avg # of iterations =  4.0

     negative rho (up, down):  1.153E-03 1.229E-03

     total cpu time spent up to now is     4344.0 secs

     total energy              =  -12400.39341642 Ry
     estimated scf accuracy    <       0.00000037 Ry

     total magnetization       =    12.49 Bohr mag/cell
     absolute magnetization    =    19.67 Bohr mag/cell

     iteration # 19     ecut=    75.00 Ry     beta= 0.70
     Davidson diagonalization with overlap
     ethr =  8.08E-11,  avg # of iterations =  5.3

     negative rho (up, down):  1.158E-03 1.233E-03

     total cpu time spent up to now is     4612.8 secs

     total energy              =  -12400.39341697 Ry
     estimated scf accuracy    <       0.00000011 Ry

     total magnetization       =    12.49 Bohr mag/cell
     absolute magnetization    =    19.68 Bohr mag/cell

     iteration # 20     ecut=    75.00 Ry     beta= 0.70
     Davidson diagonalization with overlap
     ethr =  2.38E-11,  avg # of iterations =  3.0

     negative rho (up, down):  1.160E-03 1.234E-03
 
     Magnetic moment per site  (integrated on atomic sphere of radius R)
     atom   1 (R=0.052)  charge= 10.3425  magn=  2.7909
     atom   2 (R=0.052)  charge= 10.4148  magn=  2.3833
     atom   3 (R=0.052)  charge= 10.4224  magn=  2.4132
     atom   4 (R=0.052)  charge= 10.4699  magn=  2.2599
     atom   5 (R=0.077)  charge= 10.0280  magn= -0.1668
     atom   6 (R=0.052)  charge=  1.4759  magn=  0.0012
     atom   7 (R=0.052)  charge=  1.4790  magn=  0.0012
     atom   8 (R=0.077)  charge= 10.0283  magn= -0.1258
     atom   9 (R=0.052)  charge=  1.4765  magn= -0.0002
     atom  10 (R=0.052)  charge=  1.4800  magn=  0.0008
     atom  11 (R=0.077)  charge= 10.0411  magn= -0.1126
     atom  12 (R=0.052)  charge=  1.4765  magn=  0.0000
     atom  13 (R=0.052)  charge=  1.4800  magn=  0.0008
     atom  14 (R=0.077)  charge= 10.0293  magn= -0.1542
     atom  15 (R=0.052)  charge=  1.4759  magn=  0.0014
     atom  16 (R=0.052)  charge=  1.4790  magn=  0.0010
     atom  17 (R=0.077)  charge= 10.0323  magn= -0.0383
     atom  18 (R=0.052)  charge=  1.4764  magn=  0.0023
     atom  19 (R=0.052)  charge=  1.4810  magn= -0.0006
     atom  20 (R=0.077)  charge= 10.0686  magn= -0.0292
     atom  21 (R=0.052)  charge=  1.4762  magn= -0.0006
     atom  22 (R=0.052)  charge=  1.5655  magn= -0.0336
     atom  23 (R=0.077)  charge= 10.0719  magn= -0.0676
     atom  24 (R=0.052)  charge=  1.4756  magn=  0.0041
     atom  25 (R=0.052)  charge=  1.5149  magn= -0.0145
     atom  26 (R=0.077)  charge= 10.0564  magn= -0.0976
     atom  27 (R=0.052)  charge=  1.4767  magn=  0.0055
     atom  28 (R=0.052)  charge=  1.5135  magn= -0.0144
     atom  29 (R=0.077)  charge= 10.0649  magn= -0.0712
     atom  30 (R=0.052)  charge=  1.4761  magn=  0.0068
     atom  31 (R=0.052)  charge=  1.4888  magn= -0.0106
     atom  32 (R=0.077)  charge= 10.0797  magn= -0.0602
     atom  33 (R=0.052)  charge=  1.4766  magn=  0.0054
     atom  34 (R=0.052)  charge=  1.5116  magn= -0.0085
     atom  35 (R=0.077)  charge= 10.0322  magn=  0.0083
     atom  36 (R=0.052)  charge=  1.4766  magn=  0.0010
     atom  37 (R=0.052)  charge=  1.4802  magn= -0.0016
     atom  38 (R=0.077)  charge= 10.0729  magn= -0.0183
     atom  39 (R=0.052)  charge=  1.4762  magn= -0.0010
     atom  40 (R=0.052)  charge=  1.5218  magn= -0.0276
     atom  41 (R=0.077)  charge= 10.0343  magn= -0.1832
     atom  42 (R=0.052)  charge=  1.4768  magn=  0.0008
     atom  43 (R=0.052)  charge=  1.5574  magn= -0.0345
     atom  44 (R=0.077)  charge= 10.0221  magn= -0.0819
     atom  45 (R=0.052)  charge=  1.4760  magn=  0.0006
     atom  46 (R=0.052)  charge=  1.4808  magn= -0.0018
     atom  47 (R=0.077)  charge= 10.0219  magn= -0.1161
     atom  48 (R=0.052)  charge=  1.4767  magn=  0.0065
     atom  49 (R=0.052)  charge=  1.4797  magn=  0.0018
     atom  50 (R=0.077)  charge= 10.0714  magn= -0.0490
     atom  51 (R=0.052)  charge=  1.4768  magn=  0.0008
     atom  52 (R=0.052)  charge=  1.5980  magn= -0.0354

     total cpu time spent up to now is     4846.2 secs

     End of self-consistent calculation
 --- enter write_ns ---
 LDA+U parameters:
U( 1)     =  4.00000000
atom    1   Tr[ns(na)] (up, down, total) =   4.66212  0.61735  5.27947
   spin  1
    eigenvalues: 
  0.892  0.906  0.935  0.956  0.974
    eigenvectors:
  0.141  0.010  0.849  0.000  0.000
  0.000  0.024  0.001  0.975  0.000
  0.032  0.003  0.010  0.000  0.954
  0.730  0.081  0.140  0.005  0.045
  0.098  0.882  0.001  0.020  0.000
    occupations:
  0.929 -0.001 -0.002 -0.015  0.002
 -0.001  0.955 -0.001 -0.003 -0.007
 -0.002 -0.001  0.971 -0.015  0.001
 -0.015 -0.003 -0.015  0.903  0.004
  0.002 -0.007  0.001  0.004  0.905
   spin  2
    eigenvalues: 
  0.073  0.086  0.111  0.169  0.178
    eigenvectors:
  0.004  0.024  0.970  0.002  0.000
  0.995  0.001  0.003  0.001  0.000
  0.000  0.974  0.025  0.000  0.001
  0.000  0.001  0.001  0.738  0.259
  0.001  0.000  0.001  0.258  0.739
    occupations:
  0.111 -0.002 -0.004  0.002  0.002
 -0.002  0.073  0.000  0.002  0.003
 -0.004  0.000  0.086  0.003 -0.001
  0.002  0.002  0.003  0.171 -0.004
  0.002  0.003 -0.001 -0.004  0.176
atomic mag. moment =   4.04477
atom    2   Tr[ns(na)] (up, down, total) =   4.50667  1.18918  5.69585
   spin  1
    eigenvalues: 
  0.809  0.871  0.926  0.943  0.957
    eigenvectors:
  0.002  0.000  0.868  0.106  0.024
  0.001  0.000  0.094  0.232  0.674
  0.003  0.001  0.038  0.656  0.302
  0.047  0.952  0.000  0.000  0.000
  0.946  0.046  0.001  0.007  0.000
    occupations:
  0.928 -0.007 -0.002 -0.000  0.006
 -0.007  0.951 -0.007  0.001 -0.004
 -0.002 -0.007  0.946 -0.001 -0.008
 -0.000  0.001 -0.001  0.868  0.013
  0.006 -0.004 -0.008  0.013  0.813
   spin  2
    eigenvalues: 
  0.117  0.153  0.194  0.328  0.397
    eigenvectors:
  0.008  0.936  0.009  0.000  0.046
  0.531  0.000  0.467  0.002  0.000
  0.460  0.018  0.520  0.002  0.000
  0.000  0.005  0.004  0.927  0.064
  0.000  0.041  0.000  0.069  0.890
    occupations:
  0.164 -0.005  0.000  0.017 -0.048
 -0.005  0.153  0.039 -0.005 -0.003
  0.000  0.039  0.158 -0.004 -0.005
  0.017 -0.005 -0.004  0.331 -0.014
 -0.048 -0.003 -0.005 -0.014  0.382
atomic mag. moment =   3.31750
atom    3   Tr[ns(na)] (up, down, total) =   4.52138  1.15700  5.67838
   spin  1
    eigenvalues: 
  0.811  0.884  0.934  0.940  0.953
    eigenvectors:
  0.009  0.007  0.005  0.915  0.065
  0.001  0.013  0.435  0.052  0.500
  0.001  0.000  0.555  0.015  0.428
  0.217  0.769  0.004  0.004  0.006
  0.772  0.211  0.001  0.014  0.001
    occupations:
  0.939  0.002  0.002 -0.002 -0.013
  0.002  0.943  0.009 -0.008 -0.001
  0.002  0.009  0.942 -0.003 -0.004
 -0.002 -0.008 -0.003  0.869 -0.030
 -0.013 -0.001 -0.004 -0.030  0.829
   spin  2
    eigenvalues: 
  0.117  0.142  0.195  0.315  0.388
    eigenvectors:
  0.020  0.860  0.052  0.000  0.068
  0.476  0.003  0.480  0.039  0.003
  0.502  0.054  0.413  0.018  0.013
  0.002  0.001  0.042  0.877  0.078
  0.000  0.083  0.013  0.065  0.838
    occupations:
  0.161  0.007  0.002  0.014  0.061
  0.007  0.163 -0.042  0.022 -0.016
  0.002 -0.042  0.158 -0.006  0.028
  0.014  0.022 -0.006  0.315  0.020
  0.061 -0.016  0.028  0.020  0.360
atomic mag. moment =   3.36438
atom    4   Tr[ns(na)] (up, down, total) =   4.47741  1.32993  5.80734
   spin  1
    eigenvalues: 
  0.805  0.872  0.915  0.932  0.953
    eigenvectors:
  0.011  0.000  0.164  0.822  0.002
  0.003  0.026  0.487  0.114  0.370
  0.001  0.000  0.333  0.045  0.620
  0.389  0.578  0.011  0.017  0.005
  0.595  0.395  0.004  0.003  0.002
    occupations:
  0.928  0.003 -0.004 -0.009 -0.010
  0.003  0.930  0.017 -0.012  0.000
 -0.004  0.017  0.939  0.001  0.004
 -0.009 -0.012  0.001  0.848 -0.032
 -0.010  0.000  0.004 -0.032  0.833
   spin  2
    eigenvalues: 
  0.096  0.142  0.249  0.359  0.483
    eigenvectors:
  0.011  0.846  0.019  0.000  0.123
  0.533  0.024  0.400  0.040  0.003
  0.446  0.000  0.526  0.016  0.012
  0.007  0.003  0.036  0.868  0.086
  0.003  0.127  0.019  0.075  0.776
    occupations:
  0.186 -0.001  0.000  0.028  0.109
 -0.001  0.170 -0.079  0.025 -0.016
  0.000 -0.079  0.186  0.003  0.032
  0.028  0.025  0.003  0.364  0.030
  0.109 -0.016  0.032  0.030  0.425
atomic mag. moment =   3.14748
N of occupied +U levels =   22.461027
 --- exit write_ns ---

 ------ SPIN UP ------------


          k = 0.0000 0.0000 0.0000 (287679 PWs)   bands (ev):

   -73.2139 -73.2085 -73.2013 -73.1234 -55.9004 -55.8719 -55.8595 -55.8570
   -55.8351 -55.8279 -55.8186 -55.7999 -55.7602 -55.7501 -55.7365 -55.7234
   -55.7188 -55.6891 -55.6430 -55.6340 -45.2145 -45.0363 -44.9918 -44.6759
   -44.6551 -44.6376 -44.5927 -44.5811 -44.5746 -44.5702 -44.5488 -44.5225
   -32.1065 -32.0931 -32.0752 -32.0718 -32.0611 -32.0378 -32.0167 -32.0120
   -32.0090 -32.0023 -31.9892 -31.9830 -31.9742 -31.9587 -31.9502 -31.9407
   -31.9335 -31.9311 -31.9265 -31.9127 -31.9034 -31.8925 -31.8833 -31.8748
   -31.8693 -31.8633 -31.8541 -31.8518 -31.8412 -31.8354 -31.8244 -31.8188
   -31.8133 -31.8089 -31.7948 -31.7883 -31.7791 -31.7714 -31.7620 -31.7479
   -31.7443 -31.7318 -31.7249 -31.7164 -31.7126 -31.6966 -31.6688 -31.6659
   -16.0379 -15.7233 -15.6503 -15.2527 -14.8232 -14.5936 -14.4671 -14.2052
   -14.0600 -13.7340 -13.7006 -13.6822 -13.5439 -13.5172 -13.4904 -13.3013
   -13.1970 -13.1903 -13.0983 -13.0599 -13.0500 -13.0349 -12.9840 -12.9808
   -12.9584 -12.9420 -12.9333 -12.8926 -12.8548 -12.8345 -12.8321 -12.7815
    -8.1310  -7.8211  -7.6215  -7.4971  -7.3840  -7.0908  -7.0813  -6.9305
    -6.8390  -6.7440  -6.7148  -6.3004  -6.1413  -5.9839  -5.9600  -5.9275
    -5.8679  -5.7852  -5.7215  -5.6018  -5.4448  -5.4215  -5.3553  -5.2815
    -5.2186  -5.1673  -5.1104  -5.0781  -5.0191  -5.0074  -4.9362  -4.9106
    -4.8743  -4.8686  -4.8032  -4.7497  -4.7100  -4.6607  -4.5999  -4.5074
    -4.4948  -4.4511  -4.4172  -4.3937  -4.3640  -4.3000  -4.1522  -4.0671
    -4.0540  -4.0216  -3.9999  -3.9767  -3.9199  -3.8902  -3.8454  -3.7564
    -3.7392  -3.7339  -3.7063  -3.6801  -3.6310  -3.5869  -3.5232  -3.4802
    -3.4469  -3.4272  -3.4114  -3.4036  -3.3252  -3.2975  -3.2714  -3.2405
    -3.2128  -3.1684  -3.1607  -3.1085  -3.0733  -3.0408  -2.9860  -2.9347
    -2.7700  -2.7352  -2.6230  -2.5290  -2.5077  -2.4780  -2.4185  -2.3697
    -2.3464  -2.3396  -2.3179  -2.2950  -2.2401  -2.1811  -2.1634  -2.1447
    -2.1058  -2.0648  -2.0474  -2.0210  -1.9868  -1.9758  -1.9427  -1.9287
    -1.8635  -1.7464  -1.7215  -1.6061  -1.5639  -1.5234  -1.4088  -1.3517
    -1.2863  -1.1872  -1.1561  -1.0277  -0.9635  -0.9385  -0.9016  -0.8340
    -0.7853  -0.7601  -0.7222  -0.6790  -0.6300  -0.5995  -0.5728  -0.5508
    -0.5054  -0.4514  -0.3579  -0.2904   0.8533   0.8827   1.0240   1.2290
     1.3947   1.4036   1.5174   1.5575   1.5801   1.5856   1.6236   1.6443
     1.6643   1.6750   1.6984   1.7421   1.7511   1.7637   1.7720   1.8072
     1.8143   1.8776   1.8856   1.8982   1.9561   2.0019   2.0484   2.0701
     2.0935   2.1250

          k = 0.0000 0.1925 0.0000 (287730 PWs)   bands (ev):

   -73.2139 -73.2085 -73.2013 -73.1234 -55.9004 -55.8719 -55.8595 -55.8570
   -55.8351 -55.8279 -55.8186 -55.7999 -55.7602 -55.7501 -55.7365 -55.7234
   -55.7188 -55.6891 -55.6430 -55.6340 -45.2145 -45.0363 -44.9918 -44.6759
   -44.6551 -44.6376 -44.5927 -44.5811 -44.5746 -44.5702 -44.5488 -44.5225
   -32.1060 -32.0922 -32.0749 -32.0714 -32.0610 -32.0377 -32.0167 -32.0118
   -32.0091 -32.0019 -31.9896 -31.9830 -31.9741 -31.9599 -31.9515 -31.9438
   -31.9358 -31.9317 -31.9285 -31.9126 -31.9018 -31.8946 -31.8808 -31.8734
   -31.8700 -31.8629 -31.8556 -31.8487 -31.8407 -31.8350 -31.8231 -31.8181
   -31.8104 -31.8072 -31.7940 -31.7883 -31.7792 -31.7721 -31.7629 -31.7482
   -31.7447 -31.7329 -31.7252 -31.7164 -31.7126 -31.6968 -31.6690 -31.6665
   -16.0374 -15.7234 -15.6505 -15.2527 -14.8272 -14.5925 -14.4663 -14.1969
   -14.0636 -13.7548 -13.7119 -13.6929 -13.5143 -13.4935 -13.4670 -13.2957
   -13.2069 -13.2016 -13.1018 -13.0748 -13.0692 -13.0364 -12.9861 -12.9812
   -12.9584 -12.9400 -12.9359 -12.9050 -12.8551 -12.8188 -12.8152 -12.7813
    -8.1290  -7.8184  -7.6197  -7.4966  -7.3827  -7.0906  -7.0819  -6.9297
    -6.8372  -6.7429  -6.7144  -6.2971  -6.1458  -5.9842  -5.9605  -5.9210
    -5.8738  -5.7966  -5.7240  -5.6087  -5.4347  -5.4082  -5.3375  -5.2945
    -5.2408  -5.2085  -5.1156  -5.0916  -5.0196  -4.9942  -4.9438  -4.8992
    -4.8753  -4.8396  -4.8009  -4.7560  -4.6972  -4.6104  -4.5781  -4.5126
    -4.4811  -4.4531  -4.4253  -4.4060  -4.3713  -4.3255  -4.1577  -4.0964
    -4.0893  -4.0226  -4.0096  -3.9832  -3.9405  -3.8814  -3.8447  -3.8045
    -3.7653  -3.7400  -3.7116  -3.6689  -3.6367  -3.5753  -3.5494  -3.5363
    -3.4785  -3.4208  -3.3800  -3.3711  -3.3325  -3.2712  -3.2453  -3.2255
    -3.1580  -3.1164  -3.0884  -3.0579  -3.0261  -2.9843  -2.9314  -2.8827
    -2.7619  -2.7210  -2.6943  -2.6020  -2.5813  -2.5021  -2.4550  -2.4197
    -2.3799  -2.3516  -2.2938  -2.2490  -2.2269  -2.2127  -2.1923  -2.1488
    -2.1255  -2.1097  -2.0542  -2.0124  -1.9712  -1.9439  -1.9189  -1.8586
    -1.8318  -1.7823  -1.7213  -1.6261  -1.6118  -1.5577  -1.3957  -1.3729
    -1.3017  -1.1651  -1.1345  -1.0650  -0.9671  -0.9128  -0.8697  -0.8405
    -0.7968  -0.7822  -0.7313  -0.6798  -0.6246  -0.5815  -0.5641  -0.5257
    -0.4483  -0.4133  -0.3539  -0.2746   0.8363   0.8686   1.0352   1.2472
     1.3787   1.3873   1.5189   1.5297   1.5448   1.5761   1.5961   1.6096
     1.6235   1.6807   1.7027   1.7452   1.7505   1.7805   1.7903   1.8099
     1.8276   1.8525   1.8674   1.9012   1.9370   1.9671   2.0093   2.0499
     2.0849   2.0953

          k = 0.0000 0.3849 0.0000 (287830 PWs)   bands (ev):

   -73.2139 -73.2085 -73.2013 -73.1234 -55.9004 -55.8719 -55.8595 -55.8570
   -55.8351 -55.8279 -55.8186 -55.7999 -55.7602 -55.7501 -55.7365 -55.7234
   -55.7188 -55.6891 -55.6430 -55.6340 -45.2145 -45.0363 -44.9918 -44.6759
   -44.6551 -44.6376 -44.5927 -44.5811 -44.5746 -44.5702 -44.5488 -44.5225
   -32.1049 -32.0903 -32.0744 -32.0706 -32.0609 -32.0374 -32.0177 -32.0115
   -32.0085 -32.0009 -31.9901 -31.9828 -31.9739 -31.9627 -31.9538 -31.9513
   -31.9383 -31.9338 -31.9300 -31.9165 -31.8991 -31.8914 -31.8806 -31.8737
   -31.8699 -31.8618 -31.8548 -31.8465 -31.8398 -31.8342 -31.8197 -31.8168
   -31.8050 -31.8035 -31.7913 -31.7884 -31.7795 -31.7737 -31.7649 -31.7489
   -31.7455 -31.7357 -31.7258 -31.7163 -31.7127 -31.6972 -31.6696 -31.6677
   -16.0363 -15.7236 -15.6507 -15.2528 -14.8351 -14.5902 -14.4646 -14.1788
   -14.0717 -13.7922 -13.7296 -13.7051 -13.4579 -13.4424 -13.4222 -13.2888
   -13.2379 -13.2330 -13.1086 -13.1020 -13.0923 -13.0380 -12.9885 -12.9804
   -12.9591 -12.9460 -12.9374 -12.9267 -12.8557 -12.7931 -12.7905 -12.7787
    -8.1251  -7.8129  -7.6160  -7.4959  -7.3801  -7.0899  -7.0832  -6.9281
    -6.8334  -6.7407  -6.7136  -6.2899  -6.1552  -5.9854  -5.9569  -5.9118
    -5.8886  -5.8183  -5.7284  -5.6177  -5.4262  -5.3870  -5.3426  -5.2952
    -5.2749  -5.1968  -5.1467  -5.1099  -5.0228  -4.9676  -4.9591  -4.8812
    -4.8488  -4.8424  -4.8088  -4.7871  -4.7322  -4.5531  -4.5311  -4.4949
    -4.4738  -4.4335  -4.4153  -4.4010  -4.3356  -4.3171  -4.1853  -4.1323
    -4.1104  -4.0870  -4.0562  -4.0362  -3.9914  -3.8889  -3.8700  -3.8341
    -3.8215  -3.7751  -3.6882  -3.6702  -3.6533  -3.6292  -3.5517  -3.5125
    -3.4706  -3.4034  -3.3482  -3.3086  -3.2854  -3.2540  -3.2266  -3.1337
    -3.1038  -3.0673  -3.0582  -2.9963  -2.9802  -2.8468  -2.8305  -2.7980
    -2.7878  -2.7388  -2.7140  -2.6700  -2.5854  -2.5443  -2.5010  -2.4202
    -2.4061  -2.3755  -2.2769  -2.2678  -2.2427  -2.2368  -2.1970  -2.1802
    -2.1669  -2.1439  -2.0736  -2.0516  -1.9922  -1.9527  -1.9053  -1.8552
    -1.8405  -1.8131  -1.7526  -1.7299  -1.6554  -1.5050  -1.3640  -1.3310
    -1.2959  -1.1505  -1.1181  -1.0821  -0.9812  -0.9085  -0.8758  -0.8539
    -0.8173  -0.7464  -0.7244  -0.6769  -0.6265  -0.5636  -0.5439  -0.4661
    -0.3812  -0.3514  -0.3227  -0.2368   0.8042   0.8388   1.0674   1.2635
     1.3295   1.3656   1.4667   1.4681   1.4879   1.5008   1.5817   1.6092
     1.6442   1.6881   1.7008   1.7292   1.7384   1.7686   1.7859   1.7993
     1.8211   1.8485   1.8716   1.8790   1.9063   1.9511   1.9954   2.0180
     2.0251   2.0507

          k = 0.0000-0.5774 0.0000 (287882 PWs)   bands (ev):

   -73.2139 -73.2085 -73.2013 -73.1234 -55.9004 -55.8719 -55.8595 -55.8570
   -55.8351 -55.8279 -55.8186 -55.7999 -55.7602 -55.7501 -55.7365 -55.7234
   -55.7188 -55.6891 -55.6430 -55.6340 -45.2145 -45.0363 -44.9918 -44.6759
   -44.6551 -44.6376 -44.5927 -44.5811 -44.5746 -44.5702 -44.5488 -44.5225
   -32.1044 -32.0893 -32.0741 -32.0701 -32.0609 -32.0372 -32.0187 -32.0114
   -32.0080 -32.0002 -31.9902 -31.9828 -31.9738 -31.9643 -31.9560 -31.9538
   -31.9393 -31.9351 -31.9299 -31.9192 -31.8974 -31.8890 -31.8816 -31.8749
   -31.8692 -31.8611 -31.8534 -31.8469 -31.8393 -31.8337 -31.8178 -31.8161
   -31.8027 -31.8015 -31.7894 -31.7883 -31.7795 -31.7748 -31.7661 -31.7492
   -31.7458 -31.7376 -31.7260 -31.7163 -31.7127 -31.6973 -31.6700 -31.6682
   -16.0358 -15.7237 -15.6509 -15.2528 -14.8390 -14.5891 -14.4638 -14.1685
   -14.0766 -13.8090 -13.7371 -13.7093 -13.4245 -13.4094 -13.3972 -13.3013
   -13.2635 -13.2467 -13.1143 -13.1092 -13.0985 -13.0386 -12.9892 -12.9799
   -12.9604 -12.9589 -12.9376 -12.9299 -12.8559 -12.7852 -12.7821 -12.7726
    -8.1231  -7.8101  -7.6141  -7.4957  -7.3788  -7.0895  -7.0839  -6.9274
    -6.8313  -6.7396  -6.7130  -6.2860  -6.1601  -5.9862  -5.9517  -5.9130
    -5.8950  -5.8283  -5.7303  -5.6209  -5.4303  -5.3910  -5.3417  -5.2950
    -5.2644  -5.1885  -5.1464  -5.1105  -5.0426  -4.9666  -4.9392  -4.9078
    -4.8727  -4.8389  -4.7921  -4.7785  -4.7441  -4.5635  -4.5448  -4.4928
    -4.4784  -4.4269  -4.4055  -4.3849  -4.2635  -4.2293  -4.2040  -4.1529
    -4.1456  -4.1273  -4.0703  -4.0638  -4.0135  -3.9270  -3.9006  -3.8613
    -3.8343  -3.7856  -3.6838  -3.6671  -3.6558  -3.6323  -3.5453  -3.4936
    -3.4564  -3.4224  -3.3836  -3.2884  -3.2311  -3.2010  -3.1654  -3.1101
    -3.1005  -3.0896  -3.0071  -2.9504  -2.9445  -2.8987  -2.8731  -2.8563
    -2.8441  -2.6553  -2.6374  -2.6293  -2.5107  -2.4842  -2.4547  -2.4205
    -2.4019  -2.3431  -2.3194  -2.3038  -2.2566  -2.2391  -2.2167  -2.2105
    -2.2070  -2.1745  -2.1703  -2.1258  -1.9920  -1.9846  -1.8951  -1.8814
    -1.8523  -1.8300  -1.7991  -1.6878  -1.6709  -1.4777  -1.3572  -1.2980
    -1.2613  -1.1607  -1.1152  -1.0787  -0.9894  -0.9223  -0.8740  -0.8589
    -0.8252  -0.7381  -0.7056  -0.6696  -0.6206  -0.5614  -0.5394  -0.4386
    -0.3719  -0.3180  -0.2920  -0.2151   0.7890   0.8233   1.0896   1.2507
     1.2997   1.3684   1.4311   1.4429   1.4569   1.4756   1.5810   1.6101
     1.6448   1.6603   1.6957   1.7229   1.7489   1.7698   1.7832   1.8046
     1.8165   1.8555   1.8787   1.8865   1.9159   1.9458   1.9497   1.9689
     1.9793   2.0133

          k = 0.1667 0.2887 0.0000 (287748 PWs)   bands (ev):

   -73.2138 -73.2085 -73.2013 -73.1234 -55.9004 -55.8719 -55.8595 -55.8570
   -55.8351 -55.8279 -55.8186 -55.7999 -55.7602 -55.7501 -55.7365 -55.7234
   -55.7188 -55.6891 -55.6430 -55.6340 -45.2145 -45.0363 -44.9918 -44.6759
   -44.6551 -44.6376 -44.5927 -44.5811 -44.5746 -44.5702 -44.5488 -44.5225
   -32.1048 -32.0898 -32.0750 -32.0697 -32.0600 -32.0395 -32.0228 -32.0130
   -32.0067 -31.9999 -31.9899 -31.9831 -31.9798 -31.9660 -31.9487 -31.9392
   -31.9337 -31.9318 -31.9289 -31.9145 -31.8988 -31.8929 -31.8840 -31.8752
   -31.8703 -31.8619 -31.8571 -31.8470 -31.8426 -31.8361 -31.8271 -31.8158
   -31.8089 -31.7984 -31.7931 -31.7876 -31.7788 -31.7718 -31.7599 -31.7501
   -31.7434 -31.7354 -31.7255 -31.7175 -31.7131 -31.6980 -31.6699 -31.6668
   -16.0305 -15.7605 -15.6164 -15.2564 -14.8249 -14.6169 -14.4402 -14.1878
   -14.0643 -13.8225 -13.7614 -13.5942 -13.5466 -13.4617 -13.3730 -13.2899
   -13.2759 -13.1559 -13.1399 -13.1018 -13.0923 -13.0367 -13.0229 -12.9806
   -12.9564 -12.9310 -12.9205 -12.9007 -12.8621 -12.8294 -12.7828 -12.7731
    -8.1171  -7.8131  -7.6429  -7.4957  -7.3705  -7.1227  -7.0685  -6.9446
    -6.8267  -6.7476  -6.6557  -6.2833  -6.1649  -6.0070  -5.9548  -5.9158
    -5.8809  -5.8195  -5.7117  -5.6142  -5.4204  -5.3981  -5.3233  -5.2834
    -5.2417  -5.1976  -5.1340  -5.1117  -5.0541  -5.0132  -4.9574  -4.9108
    -4.8735  -4.8243  -4.7872  -4.7647  -4.7007  -4.6334  -4.5400  -4.5243
    -4.4893  -4.4374  -4.4045  -4.3808  -4.3430  -4.3009  -4.2349  -4.1493
    -4.0974  -4.0420  -4.0162  -4.0073  -3.9893  -3.9363  -3.8565  -3.8090
    -3.7873  -3.7605  -3.7251  -3.7122  -3.5944  -3.5650  -3.5194  -3.4985
    -3.4491  -3.4020  -3.3590  -3.3228  -3.2940  -3.2640  -3.2123  -3.2079
    -3.1462  -3.1012  -3.0516  -3.0253  -2.9934  -2.8764  -2.8386  -2.8336
    -2.7634  -2.7315  -2.7028  -2.6682  -2.5978  -2.5621  -2.4803  -2.4229
    -2.3892  -2.3557  -2.3326  -2.2872  -2.2356  -2.2127  -2.1926  -2.1748
    -2.1332  -2.1100  -2.0591  -2.0262  -1.9978  -1.9623  -1.8809  -1.8370
    -1.8187  -1.7733  -1.7542  -1.6871  -1.6583  -1.5433  -1.4103  -1.3894
    -1.3241  -1.2431  -1.0773  -1.0215  -0.9499  -0.8988  -0.8801  -0.8539
    -0.8045  -0.7637  -0.7417  -0.6778  -0.6276  -0.5549  -0.5328  -0.5071
    -0.4105  -0.3618  -0.3195  -0.2486   0.8184   0.9063   1.0421   1.2408
     1.3314   1.3506   1.4666   1.4955   1.5352   1.5596   1.5693   1.5862
     1.6286   1.6697   1.6985   1.7301   1.7576   1.7680   1.7882   1.8036
     1.8291   1.8437   1.8672   1.9023   1.9180   1.9662   1.9884   2.0190
     2.0365   2.0597

          k = 0.1667 0.4811 0.0000 (287831 PWs)   bands (ev):

   -73.2138 -73.2085 -73.2013 -73.1234 -55.9004 -55.8719 -55.8595 -55.8570
   -55.8351 -55.8279 -55.8186 -55.7999 -55.7602 -55.7501 -55.7365 -55.7234
   -55.7188 -55.6891 -55.6430 -55.6340 -45.2145 -45.0363 -44.9918 -44.6759
   -44.6551 -44.6376 -44.5927 -44.5811 -44.5746 -44.5702 -44.5488 -44.5225
   -32.1040 -32.0883 -32.0747 -32.0689 -32.0600 -32.0393 -32.0223 -32.0141
   -32.0065 -31.9994 -31.9895 -31.9838 -31.9809 -31.9663 -31.9519 -31.9448
   -31.9353 -31.9338 -31.9279 -31.9174 -31.8975 -31.8906 -31.8826 -31.8764
   -31.8698 -31.8630 -31.8549 -31.8465 -31.8406 -31.8358 -31.8243 -31.8150
   -31.8056 -31.7972 -31.7913 -31.7864 -31.7778 -31.7724 -31.7620 -31.7505
   -31.7439 -31.7381 -31.7259 -31.7174 -31.7131 -31.6982 -31.6702 -31.6680
   -16.0297 -15.7607 -15.6165 -15.2564 -14.8312 -14.6147 -14.4392 -14.1736
   -14.0693 -13.8310 -13.7954 -13.6010 -13.5013 -13.4148 -13.3342 -13.3283
   -13.2693 -13.1828 -13.1580 -13.1035 -13.0937 -13.0460 -13.0404 -12.9774
   -12.9515 -12.9460 -12.9347 -12.9026 -12.8618 -12.8071 -12.7777 -12.7608
    -8.1142  -7.8093  -7.6408  -7.4948  -7.3687  -7.1218  -7.0683  -6.9440
    -6.8262  -6.7468  -6.6506  -6.2768  -6.1712  -6.0095  -5.9432  -5.9199
    -5.8928  -5.8312  -5.7165  -5.6245  -5.4320  -5.3869  -5.3257  -5.2693
    -5.2440  -5.1747  -5.1469  -5.1222  -5.0410  -5.0095  -4.9712  -4.9259
    -4.9094  -4.8356  -4.8078  -4.7291  -4.6924  -4.5947  -4.5232  -4.5175
    -4.4836  -4.4221  -4.4135  -4.3785  -4.3463  -4.2603  -4.2210  -4.1722
    -4.1216  -4.0843  -4.0667  -4.0507  -4.0259  -3.9686  -3.9217  -3.8353
    -3.7917  -3.7542  -3.7249  -3.6958  -3.5925  -3.5369  -3.5107  -3.4981
    -3.4444  -3.4271  -3.3212  -3.2869  -3.2549  -3.2192  -3.1610  -3.1245
    -3.0996  -3.0689  -3.0158  -2.9892  -2.9719  -2.9041  -2.8939  -2.8472
    -2.8286  -2.7834  -2.7138  -2.5445  -2.5104  -2.4790  -2.4562  -2.4415
    -2.3740  -2.3559  -2.3231  -2.2869  -2.2680  -2.2347  -2.2218  -2.2014
    -2.1877  -2.1291  -2.1011  -2.0540  -2.0000  -1.9953  -1.9276  -1.8766
    -1.8540  -1.8283  -1.7723  -1.7449  -1.6556  -1.4895  -1.4167  -1.3316
    -1.2988  -1.2228  -1.0914  -1.0209  -0.9529  -0.9228  -0.8835  -0.8512
    -0.8041  -0.7491  -0.7157  -0.6723  -0.6206  -0.5455  -0.5291  -0.4622
    -0.3723  -0.3413  -0.2697  -0.2112   0.7942   0.8756   1.0758   1.2342
     1.2690   1.3441   1.4022   1.4799   1.5162   1.5250   1.5669   1.5916
     1.6373   1.6554   1.6886   1.7212   1.7371   1.7580   1.7812   1.7989
     1.8113   1.8422   1.8770   1.8982   1.9217   1.9402   1.9699   1.9738
     1.9943   2.0147

          k = 0.3333 0.5774 0.0000 (287970 PWs)   bands (ev):

   -73.2138 -73.2085 -73.2013 -73.1234 -55.9004 -55.8718 -55.8596 -55.8570
   -55.8351 -55.8279 -55.8186 -55.7999 -55.7602 -55.7501 -55.7364 -55.7234
   -55.7188 -55.6891 -55.6430 -55.6340 -45.2145 -45.0363 -44.9918 -44.6759
   -44.6552 -44.6376 -44.5927 -44.5811 -44.5746 -44.5702 -44.5488 -44.5225
   -32.1033 -32.0850 -32.0762 -32.0642 -32.0584 -32.0458 -32.0294 -32.0140
   -32.0075 -31.9996 -31.9926 -31.9858 -31.9817 -31.9695 -31.9493 -31.9370
   -31.9304 -31.9260 -31.9209 -31.9150 -31.8991 -31.8904 -31.8867 -31.8795
   -31.8714 -31.8669 -31.8573 -31.8491 -31.8425 -31.8377 -31.8299 -31.8151
   -31.8064 -31.7962 -31.7920 -31.7847 -31.7710 -31.7706 -31.7556 -31.7501
   -31.7418 -31.7394 -31.7258 -31.7203 -31.7136 -31.7006 -31.6709 -31.6678
   -16.0148 -15.8093 -15.5751 -15.2641 -14.8150 -14.6562 -14.4001 -14.1818
   -14.0460 -13.9177 -13.7777 -13.5617 -13.4790 -13.4139 -13.3739 -13.2637
   -13.2257 -13.2040 -13.1915 -13.1306 -13.1123 -13.0767 -13.0119 -12.9987
   -12.9570 -12.9402 -12.9210 -12.8798 -12.8626 -12.8285 -12.7714 -12.7490
    -8.0936  -7.8082  -7.6906  -7.4897  -7.3559  -7.1755  -7.0283  -6.9542
    -6.8388  -6.7619  -6.5311  -6.2531  -6.1934  -6.0430  -5.9820  -5.9069
    -5.8883  -5.8291  -5.6995  -5.6198  -5.4612  -5.3366  -5.2851  -5.2481
    -5.2065  -5.1678  -5.1363  -5.1055  -5.0809  -5.0543  -5.0390  -4.9945
    -4.9376  -4.8029  -4.7655  -4.7441  -4.6755  -4.6159  -4.5689  -4.4958
    -4.4685  -4.4228  -4.4087  -4.3877  -4.3654  -4.3190  -4.3035  -4.1819
    -4.1577  -4.0940  -4.0813  -4.0612  -4.0123  -3.9418  -3.9029  -3.8297
    -3.7903  -3.7438  -3.7064  -3.6111  -3.5901  -3.5305  -3.4840  -3.4425
    -3.4140  -3.3374  -3.3261  -3.2958  -3.2588  -3.1946  -3.1431  -3.1313
    -3.0762  -3.0354  -3.0298  -2.9990  -2.9784  -2.9486  -2.9248  -2.8640
    -2.8310  -2.8013  -2.7350  -2.6176  -2.5969  -2.4832  -2.4384  -2.3686
    -2.3379  -2.3224  -2.2912  -2.2678  -2.2414  -2.2220  -2.1887  -2.1766
    -2.1507  -2.1203  -2.0873  -2.0636  -2.0283  -1.9806  -1.9729  -1.9455
    -1.8765  -1.8314  -1.8010  -1.7118  -1.6372  -1.5465  -1.4848  -1.4187
    -1.3282  -1.2506  -1.0267  -0.9829  -0.9452  -0.9288  -0.8870  -0.8479
    -0.7907  -0.7575  -0.7116  -0.6611  -0.5976  -0.5686  -0.5061  -0.4367
    -0.3781  -0.3385  -0.2570  -0.1939   0.8333   0.9350   1.0542   1.2155
     1.2368   1.2885   1.3974   1.5104   1.5222   1.5674   1.5831   1.6077
     1.6112   1.6394   1.6588   1.7043   1.7189   1.7354   1.7570   1.8024
     1.8239   1.8358   1.8468   1.8806   1.8981   1.9077   1.9452   1.9605
     1.9849   2.0126

          k =-0.1667 0.0962 0.0000 (287730 PWs)   bands (ev):

   -73.2138 -73.2085 -73.2013 -73.1234 -55.9004 -55.8719 -55.8595 -55.8570
   -55.8351 -55.8279 -55.8186 -55.7999 -55.7602 -55.7501 -55.7365 -55.7234
   -55.7188 -55.6891 -55.6430 -55.6340 -45.2145 -45.0363 -44.9918 -44.6759
   -44.6551 -44.6376 -44.5927 -44.5811 -44.5746 -44.5702 -44.5488 -44.5225
   -32.1058 -32.0913 -32.0750 -32.0701 -32.0604 -32.0402 -32.0225 -32.0114
   -32.0067 -32.0019 -31.9886 -31.9832 -31.9783 -31.9665 -31.9476 -31.9369
   -31.9318 -31.9275 -31.9235 -31.9120 -31.9033 -31.8935 -31.8833 -31.8760
   -31.8724 -31.8647 -31.8539 -31.8514 -31.8439 -31.8346 -31.8293 -31.8201
   -31.8104 -31.8005 -31.7942 -31.7882 -31.7792 -31.7713 -31.7591 -31.7488
   -31.7429 -31.7328 -31.7250 -31.7175 -31.7130 -31.6978 -31.6693 -31.6664
   -16.0313 -15.7602 -15.6163 -15.2563 -14.8187 -14.6195 -14.4412 -14.2011
   -14.0580 -13.8112 -13.7233 -13.5923 -13.5669 -13.5202 -13.4084 -13.2936
   -13.2550 -13.1403 -13.1145 -13.0973 -13.0928 -13.0244 -12.9953 -12.9825
   -12.9641 -12.9281 -12.9105 -12.8892 -12.8657 -12.8519 -12.8035 -12.7750
    -8.1207  -7.8184  -7.6460  -7.4946  -7.3740  -7.1219  -7.0667  -6.9460
    -6.8314  -6.7475  -6.6558  -6.2903  -6.1503  -5.9999  -5.9704  -5.9211
    -5.8697  -5.7955  -5.7074  -5.6030  -5.4406  -5.4116  -5.3367  -5.2860
    -5.2269  -5.1706  -5.1146  -5.1001  -5.0442  -5.0083  -4.9413  -4.9224
    -4.8684  -4.8370  -4.8001  -4.7440  -4.7220  -4.6529  -4.5633  -4.5334
    -4.5114  -4.4728  -4.4358  -4.3974  -4.3392  -4.2989  -4.2169  -4.1389
    -4.0585  -4.0033  -3.9722  -3.9552  -3.9274  -3.8991  -3.8585  -3.8044
    -3.7887  -3.7484  -3.7155  -3.6492  -3.5897  -3.5734  -3.5430  -3.4952
    -3.4610  -3.4359  -3.4153  -3.3789  -3.3270  -3.2783  -3.2483  -3.2127
    -3.1365  -3.1237  -3.0947  -3.0414  -3.0156  -2.9804  -2.9407  -2.8663
    -2.7995  -2.7116  -2.6892  -2.6188  -2.5463  -2.5302  -2.4956  -2.4076
    -2.3818  -2.3637  -2.3131  -2.2746  -2.2279  -2.2107  -2.1631  -2.1278
    -2.0969  -2.0780  -2.0197  -2.0062  -1.9828  -1.9239  -1.9003  -1.8759
    -1.8291  -1.7952  -1.7467  -1.6574  -1.6290  -1.5179  -1.4382  -1.3909
    -1.3390  -1.2431  -1.0632  -1.0084  -0.9578  -0.9182  -0.8949  -0.8603
    -0.8034  -0.7832  -0.7256  -0.6828  -0.6072  -0.5718  -0.5351  -0.5159
    -0.4535  -0.4361  -0.3551  -0.2852   0.8473   0.9290   1.0261   1.2092
     1.3753   1.3938   1.4851   1.5382   1.5503   1.5711   1.6125   1.6295
     1.6504   1.6631   1.6828   1.7135   1.7504   1.7737   1.7961   1.8092
     1.8188   1.8489   1.8734   1.9037   1.9557   1.9960   2.0362   2.0474
     2.0696   2.1070

          k = 0.1667 0.0962 0.0000 (287730 PWs)   bands (ev):

   -73.2138 -73.2085 -73.2013 -73.1234 -55.9004 -55.8719 -55.8595 -55.8570
   -55.8351 -55.8279 -55.8186 -55.7999 -55.7602 -55.7501 -55.7365 -55.7234
   -55.7188 -55.6891 -55.6430 -55.6340 -45.2145 -45.0363 -44.9918 -44.6759
   -44.6551 -44.6376 -44.5927 -44.5811 -44.5746 -44.5702 -44.5488 -44.5225
   -32.1057 -32.0913 -32.0751 -32.0703 -32.0602 -32.0399 -32.0231 -32.0118
   -32.0068 -32.0011 -31.9891 -31.9830 -31.9784 -31.9662 -31.9463 -31.9361
   -31.9309 -31.9294 -31.9253 -31.9137 -31.9000 -31.8931 -31.8866 -31.8758
   -31.8705 -31.8625 -31.8570 -31.8500 -31.8442 -31.8361 -31.8286 -31.8188
   -31.8109 -31.8005 -31.7943 -31.7882 -31.7791 -31.7713 -31.7586 -31.7492
   -31.7428 -31.7331 -31.7251 -31.7175 -31.7131 -31.6977 -31.6695 -31.6660
   -16.0313 -15.7602 -15.6163 -15.2563 -14.8186 -14.6193 -14.4412 -14.2010
   -14.0586 -13.8123 -13.7205 -13.5965 -13.5656 -13.5183 -13.4084 -13.2940
   -13.2545 -13.1414 -13.1150 -13.0972 -13.0905 -13.0254 -12.9960 -12.9836
   -12.9638 -12.9270 -12.9095 -12.8898 -12.8638 -12.8541 -12.8034 -12.7749
    -8.1203  -7.8176  -7.6455  -7.4956  -7.3732  -7.1228  -7.0676  -6.9456
    -6.8292  -6.7479  -6.6582  -6.2899  -6.1544  -6.0027  -5.9650  -5.9203
    -5.8702  -5.8003  -5.7075  -5.6030  -5.4387  -5.4047  -5.3390  -5.2838
    -5.2216  -5.1703  -5.1128  -5.1044  -5.0405  -5.0266  -4.9481  -4.9179
    -4.8713  -4.8327  -4.8100  -4.7449  -4.7229  -4.6549  -4.5496  -4.5316
    -4.5097  -4.4519  -4.4296  -4.3967  -4.3419  -4.3014  -4.2165  -4.1402
    -4.0623  -3.9949  -3.9738  -3.9543  -3.9249  -3.8968  -3.8583  -3.8047
    -3.7757  -3.7602  -3.7247  -3.6689  -3.5808  -3.5605  -3.5224  -3.4947
    -3.4787  -3.4547  -3.4177  -3.3711  -3.3326  -3.3003  -3.2382  -3.2111
    -3.1371  -3.1249  -3.0880  -3.0491  -3.0203  -2.9810  -2.9370  -2.8643
    -2.7963  -2.7082  -2.6875  -2.6107  -2.5511  -2.5323  -2.4970  -2.4110
    -2.3796  -2.3535  -2.3021  -2.2792  -2.2275  -2.2129  -2.1686  -2.1334
    -2.0889  -2.0771  -2.0313  -2.0042  -1.9879  -1.9441  -1.9063  -1.8715
    -1.8143  -1.7936  -1.7619  -1.6602  -1.5873  -1.5262  -1.4541  -1.3731
    -1.3313  -1.2531  -1.0636  -1.0146  -0.9465  -0.9210  -0.8961  -0.8545
    -0.8011  -0.7657  -0.7370  -0.6934  -0.6054  -0.5714  -0.5587  -0.5247
    -0.4629  -0.4174  -0.3496  -0.2787   0.8451   0.9320   1.0232   1.2108
     1.3728   1.3961   1.4886   1.5341   1.5505   1.5729   1.6026   1.6330
     1.6562   1.6687   1.6761   1.7123   1.7560   1.7707   1.7967   1.8066
     1.8239   1.8543   1.8746   1.9053   1.9532   2.0005   2.0361   2.0451
     2.0748   2.1002

          k =-0.3333 0.1925 0.0000 (287830 PWs)   bands (ev):

   -73.2138 -73.2085 -73.2013 -73.1234 -55.9004 -55.8719 -55.8596 -55.8570
   -55.8351 -55.8279 -55.8186 -55.7999 -55.7602 -55.7501 -55.7364 -55.7234
   -55.7188 -55.6891 -55.6430 -55.6340 -45.2145 -45.0363 -44.9918 -44.6759
   -44.6551 -44.6375 -44.5927 -44.5811 -44.5746 -44.5702 -44.5488 -44.5225
   -32.1043 -32.0869 -32.0761 -32.0646 -32.0592 -32.0465 -32.0292 -32.0125
   -32.0061 -32.0015 -31.9917 -31.9850 -31.9813 -31.9700 -31.9476 -31.9362
   -31.9261 -31.9216 -31.9168 -31.9113 -31.9038 -31.8925 -31.8858 -31.8813
   -31.8739 -31.8668 -31.8562 -31.8517 -31.8462 -31.8353 -31.8332 -31.8174
   -31.8086 -31.7956 -31.7938 -31.7853 -31.7744 -31.7706 -31.7551 -31.7491
   -31.7407 -31.7354 -31.7252 -31.7202 -31.7136 -31.7005 -31.6705 -31.6672
   -16.0157 -15.8089 -15.5750 -15.2640 -14.8073 -14.6604 -14.4007 -14.1949
   -14.0445 -13.9046 -13.7264 -13.6319 -13.4710 -13.4546 -13.3231 -13.3030
   -13.2663 -13.2128 -13.1758 -13.0921 -13.0804 -13.0654 -13.0142 -12.9889
   -12.9630 -12.9169 -12.8980 -12.8814 -12.8709 -12.8586 -12.7761 -12.7629
    -8.0974  -7.8135  -7.6932  -7.4879  -7.3604  -7.1749  -7.0268  -6.9556
    -6.8374  -6.7667  -6.5354  -6.2635  -6.1715  -6.0341  -6.0011  -5.9085
    -5.8771  -5.8101  -5.6885  -5.6034  -5.4460  -5.3741  -5.2874  -5.2692
    -5.2175  -5.1886  -5.1637  -5.1197  -5.0768  -5.0179  -5.0024  -4.9327
    -4.8561  -4.8189  -4.7696  -4.7463  -4.7144  -4.6531  -4.6195  -4.5510
    -4.4997  -4.4658  -4.4302  -4.3545  -4.3301  -4.3072  -4.2685  -4.1707
    -4.1355  -4.0995  -3.9966  -3.9802  -3.9554  -3.9047  -3.8895  -3.8430
    -3.7654  -3.7292  -3.7073  -3.6703  -3.6003  -3.5405  -3.5020  -3.4704
    -3.4285  -3.4036  -3.3859  -3.3210  -3.2826  -3.2590  -3.2331  -3.1760
    -3.1193  -3.0678  -3.0193  -2.9787  -2.9246  -2.8977  -2.8720  -2.8221
    -2.7840  -2.7338  -2.6652  -2.6118  -2.5949  -2.5805  -2.5340  -2.4691
    -2.4279  -2.3848  -2.3601  -2.2666  -2.2512  -2.2089  -2.1837  -2.1482
    -2.1182  -2.0763  -2.0331  -2.0022  -1.9827  -1.9553  -1.9151  -1.8532
    -1.8336  -1.7939  -1.7555  -1.7042  -1.6530  -1.5566  -1.4778  -1.4383
    -1.3777  -1.2765  -1.0212  -0.9915  -0.9575  -0.9249  -0.8693  -0.8509
    -0.8009  -0.7680  -0.7305  -0.6977  -0.6142  -0.5268  -0.5059  -0.4396
    -0.3955  -0.3666  -0.3266  -0.2741   0.8791   0.9632   1.0287   1.1839
     1.3288   1.3688   1.4332   1.4474   1.5067   1.5700   1.5903   1.6032
     1.6235   1.6590   1.6798   1.7100   1.7327   1.7587   1.7693   1.8078
     1.8233   1.8435   1.8626   1.8939   1.9414   1.9613   2.0013   2.0139
     2.0397   2.0729

          k = 0.3333 0.1925 0.0000 (287830 PWs)   bands (ev):

   -73.2138 -73.2085 -73.2013 -73.1234 -55.9004 -55.8718 -55.8596 -55.8570
   -55.8351 -55.8279 -55.8186 -55.7999 -55.7602 -55.7501 -55.7364 -55.7234
   -55.7188 -55.6891 -55.6430 -55.6340 -45.2145 -45.0363 -44.9918 -44.6759
   -44.6551 -44.6375 -44.5927 -44.5811 -44.5746 -44.5702 -44.5488 -44.5225
   -32.1041 -32.0868 -32.0762 -32.0652 -32.0582 -32.0465 -32.0304 -32.0124
   -32.0072 -31.9990 -31.9905 -31.9874 -31.9819 -31.9690 -31.9456 -31.9311
   -31.9292 -31.9244 -31.9212 -31.9134 -31.8979 -31.8947 -31.8876 -31.8792
   -31.8723 -31.8650 -31.8583 -31.8502 -31.8465 -31.8384 -31.8317 -31.8157
   -31.8092 -31.7955 -31.7940 -31.7852 -31.7743 -31.7703 -31.7540 -31.7501
   -31.7398 -31.7374 -31.7254 -31.7204 -31.7137 -31.7003 -31.6708 -31.6664
   -16.0158 -15.8089 -15.5750 -15.2641 -14.8071 -14.6599 -14.4007 -14.1944
   -14.0477 -13.9043 -13.7217 -13.6361 -13.4734 -13.4514 -13.3220 -13.3009
   -13.2680 -13.2137 -13.1748 -13.0936 -13.0816 -13.0621 -13.0170 -12.9897
   -12.9627 -12.9170 -12.8940 -12.8810 -12.8706 -12.8616 -12.7765 -12.7625
    -8.0964  -7.8113  -7.6916  -7.4919  -7.3566  -7.1770  -7.0320  -6.9542
    -6.8345  -6.7637  -6.5402  -6.2637  -6.1892  -6.0421  -5.9779  -5.9060
    -5.8836  -5.8151  -5.6965  -5.5971  -5.4324  -5.3739  -5.2932  -5.2732
    -5.2102  -5.1872  -5.1579  -5.1200  -5.0875  -5.0257  -4.9959  -4.9382
    -4.8753  -4.8360  -4.7686  -4.7472  -4.7009  -4.6585  -4.6130  -4.5369
    -4.4906  -4.4487  -4.4042  -4.3480  -4.3293  -4.3156  -4.2670  -4.1614
    -4.1378  -4.0847  -3.9991  -3.9787  -3.9436  -3.9082  -3.8734  -3.8359
    -3.7892  -3.7427  -3.7297  -3.6572  -3.6026  -3.5426  -3.4979  -3.4755
    -3.4514  -3.4107  -3.3942  -3.3179  -3.3118  -3.2563  -3.2281  -3.1754
    -3.0950  -3.0765  -3.0127  -2.9704  -2.9310  -2.9064  -2.8761  -2.8120
    -2.7932  -2.7353  -2.6784  -2.6196  -2.5846  -2.5630  -2.5328  -2.4778
    -2.4292  -2.3851  -2.3281  -2.2958  -2.2513  -2.2086  -2.1890  -2.1478
    -2.1195  -2.0719  -2.0354  -2.0163  -1.9862  -1.9711  -1.8998  -1.8599
    -1.8429  -1.7812  -1.7542  -1.6795  -1.6149  -1.5583  -1.5188  -1.4162
    -1.3805  -1.2725  -1.0381  -0.9822  -0.9579  -0.9070  -0.8837  -0.8195
    -0.8089  -0.7625  -0.7223  -0.6942  -0.6183  -0.5756  -0.5163  -0.4705
    -0.4203  -0.3415  -0.2997  -0.2538   0.8761   0.9599   1.0273   1.1890
     1.3253   1.3746   1.4278   1.4547   1.5101   1.5702   1.5854   1.5955
     1.6227   1.6691   1.6817   1.7023   1.7351   1.7612   1.7718   1.8123
     1.8294   1.8469   1.8638   1.8956   1.9393   1.9684   2.0087   2.0148
     2.0301   2.0632

          k = 0.5000-0.2887 0.0000 (287882 PWs)   bands (ev):

   -73.2138 -73.2085 -73.2013 -73.1234 -55.9004 -55.8718 -55.8596 -55.8570
   -55.8351 -55.8279 -55.8186 -55.7999 -55.7602 -55.7501 -55.7364 -55.7234
   -55.7188 -55.6891 -55.6430 -55.6340 -45.2145 -45.0363 -44.9918 -44.6759
   -44.6552 -44.6375 -44.5927 -44.5811 -44.5746 -44.5702 -44.5488 -44.5225
   -32.1035 -32.0838 -32.0770 -32.0622 -32.0567 -32.0506 -32.0326 -32.0132
   -32.0070 -32.0018 -31.9947 -31.9838 -31.9814 -31.9714 -31.9476 -31.9357
   -31.9244 -31.9173 -31.9148 -31.9114 -31.9031 -31.8950 -31.8877 -31.8799
   -31.8741 -31.8694 -31.8575 -31.8531 -31.8454 -31.8379 -31.8321 -31.8162
   -31.8080 -31.7956 -31.7936 -31.7846 -31.7710 -31.7679 -31.7542 -31.7476
   -31.7426 -31.7350 -31.7248 -31.7223 -31.7139 -31.7022 -31.6712 -31.6675
   -16.0062 -15.8305 -15.5586 -15.2682 -14.7999 -14.6796 -14.3826 -14.1935
   -14.0231 -13.9556 -13.7267 -13.6492 -13.4191 -13.3806 -13.3526 -13.3089
   -13.2522 -13.2208 -13.1802 -13.1783 -13.0694 -13.0344 -13.0229 -13.0182
   -12.9461 -12.9320 -12.8936 -12.8842 -12.8646 -12.8562 -12.7647 -12.7575
    -8.0841  -7.8115  -7.7165  -7.4841  -7.3560  -7.1960  -7.0067  -6.9496
    -6.8542  -6.7726  -6.4733  -6.2426  -6.1877  -6.0545  -6.0229  -5.9005
    -5.8858  -5.8144  -5.6843  -5.5996  -5.4569  -5.3248  -5.2699  -5.2419
    -5.2057  -5.1943  -5.1759  -5.1472  -5.1191  -5.0626  -4.9926  -4.9277
    -4.8915  -4.8397  -4.7485  -4.7297  -4.7033  -4.6270  -4.6040  -4.5920
    -4.4903  -4.4578  -4.4245  -4.3966  -4.3277  -4.2877  -4.2499  -4.2323
    -4.1631  -4.1382  -4.0115  -3.9946  -3.9671  -3.9001  -3.8901  -3.8429
    -3.7707  -3.7319  -3.7199  -3.6992  -3.5514  -3.4997  -3.4770  -3.4665
    -3.4273  -3.3555  -3.3479  -3.3139  -3.2825  -3.2476  -3.2211  -3.2010
    -3.0873  -3.0577  -3.0143  -2.9898  -2.9607  -2.8790  -2.8016  -2.7981
    -2.7610  -2.7095  -2.6981  -2.6228  -2.5402  -2.5300  -2.4759  -2.4311
    -2.4136  -2.3901  -2.3547  -2.3190  -2.3000  -2.2218  -2.1966  -2.1959
    -2.1438  -2.1129  -2.0871  -2.0416  -1.9946  -1.9920  -1.9146  -1.8704
    -1.8308  -1.8127  -1.7255  -1.6900  -1.6475  -1.5730  -1.4753  -1.4482
    -1.3933  -1.2931  -1.0137  -0.9842  -0.9679  -0.9233  -0.8768  -0.8256
    -0.7903  -0.7538  -0.7247  -0.7030  -0.6205  -0.5104  -0.4986  -0.4186
    -0.3751  -0.3191  -0.3060  -0.2657   0.9143   0.9538   1.0234   1.1796
     1.3031   1.3664   1.3825   1.4349   1.5036   1.5081   1.5642   1.5949
     1.6394   1.6835   1.6873   1.7012   1.7392   1.7558   1.7742   1.7847
     1.8221   1.8487   1.8583   1.8789   1.8828   1.9390   1.9782   2.0076
     2.0409   2.0461

          k =-0.5000-0.2887 0.0000 (287882 PWs)   bands (ev):

   -73.2138 -73.2085 -73.2013 -73.1234 -55.9004 -55.8718 -55.8596 -55.8570
   -55.8351 -55.8279 -55.8186 -55.7999 -55.7602 -55.7501 -55.7364 -55.7234
   -55.7188 -55.6891 -55.6430 -55.6340 -45.2145 -45.0363 -44.9918 -44.6759
   -44.6552 -44.6375 -44.5927 -44.5811 -44.5746 -44.5702 -44.5488 -44.5225
   -32.1033 -32.0839 -32.0769 -32.0618 -32.0559 -32.0520 -32.0339 -32.0126
   -32.0089 -31.9981 -31.9935 -31.9874 -31.9822 -31.9695 -31.9457 -31.9293
   -31.9282 -31.9221 -31.9186 -31.9130 -31.9012 -31.8955 -31.8836 -31.8809
   -31.8736 -31.8672 -31.8588 -31.8517 -31.8462 -31.8391 -31.8326 -31.8143
   -31.8084 -31.7960 -31.7937 -31.7845 -31.7702 -31.7676 -31.7537 -31.7472
   -31.7429 -31.7371 -31.7255 -31.7223 -31.7141 -31.7018 -31.6715 -31.6665
   -16.0063 -15.8304 -15.5585 -15.2682 -14.7996 -14.6789 -14.3825 -14.1924
   -14.0308 -13.9518 -13.7204 -13.6547 -13.4217 -13.3792 -13.3501 -13.3081
   -13.2498 -13.2186 -13.1875 -13.1764 -13.0684 -13.0383 -13.0223 -13.0168
   -12.9471 -12.9325 -12.8895 -12.8819 -12.8672 -12.8579 -12.7655 -12.7567
    -8.0826  -7.8088  -7.7142  -7.4900  -7.3500  -7.1991  -7.0144  -6.9478
    -6.8526  -6.7656  -6.4773  -6.2442  -6.2157  -6.0650  -5.9921  -5.8957
    -5.8891  -5.8212  -5.6969  -5.5855  -5.4569  -5.3134  -5.2813  -5.2509
    -5.2271  -5.1801  -5.1546  -5.1444  -5.1070  -5.0758  -4.9698  -4.9491
    -4.9127  -4.8651  -4.7784  -4.7263  -4.6698  -4.6335  -4.5914  -4.5757
    -4.4796  -4.4382  -4.4189  -4.3796  -4.3229  -4.2758  -4.2499  -4.2196
    -4.1765  -4.1237  -4.0149  -3.9810  -3.9569  -3.9004  -3.8838  -3.8447
    -3.7863  -3.7500  -3.7368  -3.6926  -3.5578  -3.5082  -3.5004  -3.4427
    -3.4280  -3.3749  -3.3502  -3.3073  -3.2930  -3.2648  -3.2505  -3.2017
    -3.0629  -3.0398  -3.0019  -2.9857  -2.9522  -2.8655  -2.8216  -2.7995
    -2.7770  -2.7321  -2.7123  -2.6308  -2.5273  -2.5064  -2.4789  -2.4255
    -2.4165  -2.3902  -2.3601  -2.3233  -2.3095  -2.2372  -2.2295  -2.1802
    -2.1209  -2.1092  -2.0884  -2.0432  -2.0099  -1.9986  -1.8979  -1.8437
    -1.8305  -1.7998  -1.7272  -1.6787  -1.6274  -1.5674  -1.5262  -1.4281
    -1.4027  -1.2790  -1.0260  -0.9971  -0.9448  -0.9201  -0.8643  -0.8218
    -0.7972  -0.7391  -0.7025  -0.6891  -0.6323  -0.5841  -0.4978  -0.4583
    -0.4053  -0.3045  -0.2622  -0.2414   0.9184   0.9348   1.0270   1.1864
     1.3016   1.3695   1.3804   1.4391   1.4998   1.5205   1.5787   1.5971
     1.6174   1.6758   1.6866   1.6911   1.7328   1.7707   1.7743   1.7877
     1.8266   1.8465   1.8727   1.8803   1.9062   1.9431   1.9681   2.0033
     2.0329   2.0534

          k =-0.1667 0.2887 0.0000 (287748 PWs)   bands (ev):

   -73.2138 -73.2085 -73.2013 -73.1234 -55.9004 -55.8719 -55.8595 -55.8570
   -55.8351 -55.8279 -55.8186 -55.7999 -55.7602 -55.7501 -55.7365 -55.7234
   -55.7188 -55.6891 -55.6430 -55.6340 -45.2145 -45.0363 -44.9918 -44.6759
   -44.6551 -44.6376 -44.5927 -44.5811 -44.5746 -44.5702 -44.5488 -44.5225
   -32.1050 -32.0899 -32.0748 -32.0693 -32.0604 -32.0401 -32.0218 -32.0126
   -32.0063 -32.0017 -31.9885 -31.9836 -31.9793 -31.9668 -31.9507 -31.9416
   -31.9333 -31.9305 -31.9250 -31.9127 -31.9025 -31.8932 -31.8810 -31.8767
   -31.8706 -31.8649 -31.8535 -31.8491 -31.8425 -31.8338 -31.8273 -31.8183
   -31.8081 -31.7986 -31.7925 -31.7877 -31.7789 -31.7717 -31.7609 -31.7492
   -31.7434 -31.7347 -31.7255 -31.7174 -31.7130 -31.6980 -31.6694 -31.6676
   -16.0304 -15.7605 -15.6164 -15.2563 -14.8251 -14.6173 -14.4401 -14.1880
   -14.0628 -13.8208 -13.7646 -13.5927 -13.5468 -13.4617 -13.3746 -13.2887
   -13.2772 -13.1538 -13.1397 -13.1033 -13.0936 -13.0352 -13.0224 -12.9783
   -12.9573 -12.9318 -12.9238 -12.8986 -12.8627 -12.8286 -12.7825 -12.7736
    -8.1177  -7.8147  -7.6439  -7.4936  -7.3723  -7.1209  -7.0666  -6.9453
    -6.8311  -6.7469  -6.6510  -6.2844  -6.1563  -6.0027  -5.9670  -5.9141
    -5.8809  -5.8081  -5.7130  -5.6162  -5.4384  -5.3948  -5.3136  -5.2847
    -5.2485  -5.2064  -5.1327  -5.0950  -5.0457  -5.0047  -4.9613  -4.9231
    -4.8818  -4.8210  -4.7673  -4.7483  -4.7008  -4.6400  -4.5550  -4.5221
    -4.4846  -4.4591  -4.4288  -4.3743  -4.3467  -4.3097  -4.2404  -4.1391
    -4.1014  -4.0568  -4.0220  -4.0091  -3.9867  -3.9344  -3.8484  -3.8192
    -3.7793  -3.7681  -3.7199  -3.6632  -3.5983  -3.5734  -3.5501  -3.4893
    -3.4273  -3.4122  -3.3575  -3.3289  -3.2953  -3.2576  -3.2246  -3.1795
    -3.1301  -3.1027  -3.0496  -3.0054  -2.9974  -2.8837  -2.8530  -2.8210
    -2.7770  -2.7331  -2.7117  -2.6698  -2.5906  -2.5581  -2.4824  -2.4282
    -2.3976  -2.3629  -2.3361  -2.3004  -2.2224  -2.2140  -2.1795  -2.1598
    -2.1251  -2.1034  -2.0525  -2.0246  -1.9899  -1.9567  -1.8819  -1.8450
    -1.8177  -1.7890  -1.7454  -1.7114  -1.6847  -1.5262  -1.4115  -1.3759
    -1.3525  -1.2246  -1.0762  -1.0235  -0.9516  -0.9132  -0.8764  -0.8561
    -0.8177  -0.7800  -0.7211  -0.6796  -0.5987  -0.5599  -0.5146  -0.4949
    -0.3972  -0.3642  -0.3462  -0.2587   0.8228   0.9007   1.0472   1.2387
     1.3290   1.3524   1.4700   1.4942   1.5358   1.5569   1.5730   1.5870
     1.6196   1.6679   1.6974   1.7290   1.7509   1.7682   1.7867   1.8031
     1.8297   1.8485   1.8716   1.8967   1.9255   1.9632   1.9867   2.0215
     2.0341   2.0545

          k = 0.3333-0.0000 0.0000 (287748 PWs)   bands (ev):

   -73.2138 -73.2085 -73.2013 -73.1234 -55.9004 -55.8718 -55.8596 -55.8570
   -55.8351 -55.8279 -55.8186 -55.7999 -55.7602 -55.7501 -55.7364 -55.7234
   -55.7188 -55.6891 -55.6430 -55.6340 -45.2145 -45.0363 -44.9918 -44.6758
   -44.6551 -44.6375 -44.5927 -44.5811 -44.5746 -44.5702 -44.5488 -44.5225
   -32.1045 -32.0875 -32.0761 -32.0652 -32.0587 -32.0467 -32.0300 -32.0120
   -32.0066 -32.0005 -31.9906 -31.9860 -31.9816 -31.9696 -31.9455 -31.9341
   -31.9265 -31.9218 -31.9170 -31.9126 -31.9012 -31.8920 -31.8872 -31.8811
   -31.8744 -31.8655 -31.8595 -31.8505 -31.8471 -31.8369 -31.8327 -31.8175
   -31.8091 -31.7954 -31.7942 -31.7855 -31.7755 -31.7704 -31.7543 -31.7493
   -31.7398 -31.7355 -31.7251 -31.7203 -31.7137 -31.7004 -31.6706 -31.6664
   -16.0161 -15.8088 -15.5750 -15.2640 -14.8047 -14.6613 -14.4009 -14.1994
   -14.0444 -13.9003 -13.7111 -13.6347 -13.5085 -13.4460 -13.3209 -13.3028
   -13.2751 -13.2171 -13.1605 -13.0823 -13.0763 -13.0564 -13.0184 -12.9959
   -12.9517 -12.9140 -12.8975 -12.8872 -12.8709 -12.8592 -12.7865 -12.7614
    -8.0980  -7.8138  -7.6930  -7.4900  -7.3594  -7.1761  -7.0297  -6.9551
    -6.8349  -6.7663  -6.5400  -6.2673  -6.1755  -6.0377  -5.9907  -5.9098
    -5.8764  -5.8070  -5.6914  -5.5956  -5.4325  -5.3818  -5.3097  -5.2791
    -5.2159  -5.1739  -5.1634  -5.0966  -5.0608  -5.0264  -4.9800  -4.9565
    -4.8654  -4.8054  -4.7921  -4.7460  -4.7212  -4.6660  -4.6418  -4.5212
    -4.5013  -4.4487  -4.4460  -4.3817  -4.3260  -4.2973  -4.2441  -4.1666
    -4.1284  -4.0303  -3.9922  -3.9652  -3.9471  -3.9163  -3.8791  -3.8553
    -3.7715  -3.7519  -3.7400  -3.6279  -3.5686  -3.5521  -3.5087  -3.4734
    -3.4658  -3.4148  -3.3820  -3.2971  -3.2662  -3.2478  -3.2312  -3.1963
    -3.1405  -3.1090  -3.0512  -2.9719  -2.9417  -2.9073  -2.8868  -2.8466
    -2.8094  -2.7422  -2.6909  -2.6455  -2.6273  -2.5514  -2.4937  -2.4513
    -2.4221  -2.3808  -2.3298  -2.2825  -2.2330  -2.2042  -2.1617  -2.1179
    -2.1120  -2.0601  -2.0278  -2.0171  -1.9590  -1.9351  -1.9074  -1.8762
    -1.8186  -1.7918  -1.7403  -1.6996  -1.6593  -1.5870  -1.5168  -1.4214
    -1.3564  -1.2681  -1.0256  -0.9915  -0.9526  -0.9129  -0.8896  -0.8413
    -0.7965  -0.7659  -0.7350  -0.6994  -0.6169  -0.5514  -0.5178  -0.4586
    -0.4234  -0.3887  -0.3091  -0.2717   0.8923   0.9559   1.0317   1.1773
     1.3371   1.3978   1.4234   1.4650   1.5499   1.5734   1.5910   1.6080
     1.6265   1.6580   1.6813   1.7056   1.7385   1.7561   1.7875   1.7934
     1.8187   1.8571   1.8675   1.8886   1.8975   1.9675   2.0101   2.0238
     2.0672   2.0823

          k =-0.1667 0.4811 0.0000 (287831 PWs)   bands (ev):

   -73.2138 -73.2085 -73.2013 -73.1234 -55.9004 -55.8719 -55.8595 -55.8570
   -55.8351 -55.8279 -55.8186 -55.7999 -55.7602 -55.7501 -55.7365 -55.7234
   -55.7188 -55.6891 -55.6430 -55.6340 -45.2145 -45.0363 -44.9918 -44.6759
   -44.6551 -44.6376 -44.5927 -44.5811 -44.5746 -44.5702 -44.5488 -44.5225
   -32.1041 -32.0883 -32.0746 -32.0687 -32.0602 -32.0396 -32.0219 -32.0139
   -32.0062 -32.0004 -31.9887 -31.9840 -31.9805 -31.9668 -31.9525 -31.9460
   -31.9347 -31.9335 -31.9262 -31.9172 -31.8991 -31.8893 -31.8832 -31.8766
   -31.8696 -31.8637 -31.8538 -31.8471 -31.8412 -31.8348 -31.8239 -31.8160
   -31.8056 -31.7975 -31.7908 -31.7866 -31.7779 -31.7724 -31.7625 -31.7501
   -31.7439 -31.7377 -31.7259 -31.7174 -31.7130 -31.6983 -31.6699 -31.6684
   -16.0296 -15.7608 -15.6165 -15.2564 -14.8313 -14.6149 -14.4392 -14.1738
   -14.0684 -13.8305 -13.7964 -13.6010 -13.5012 -13.4133 -13.3376 -13.3284
   -13.2680 -13.1819 -13.1580 -13.1036 -13.0943 -13.0465 -13.0394 -12.9758
   -12.9516 -12.9482 -12.9346 -12.9021 -12.8619 -12.8069 -12.7776 -12.7609
    -8.1145  -7.8102  -7.6412  -7.4937  -7.3697  -7.1209  -7.0674  -6.9443
    -6.8284  -6.7465  -6.6482  -6.2776  -6.1666  -6.0079  -5.9534  -5.9125
    -5.8941  -5.8257  -5.7177  -5.6261  -5.4453  -5.3745  -5.3175  -5.2820
    -5.2457  -5.1758  -5.1459  -5.1146  -5.0334  -5.0174  -4.9565  -4.9362
    -4.9230  -4.8307  -4.8001  -4.7192  -4.6970  -4.5960  -4.5430  -4.5092
    -4.4758  -4.4352  -4.4227  -4.3759  -4.3301  -4.2735  -4.2122  -4.1823
    -4.1236  -4.1013  -4.0610  -4.0494  -4.0257  -3.9641  -3.9175  -3.8383
    -3.7861  -3.7817  -3.7257  -3.6639  -3.5826  -3.5472  -3.5168  -3.4952
    -3.4390  -3.4267  -3.3156  -3.2906  -3.2574  -3.2327  -3.1385  -3.1180
    -3.0943  -3.0698  -3.0162  -2.9795  -2.9689  -2.9203  -2.8776  -2.8714
    -2.8450  -2.7688  -2.7286  -2.5421  -2.5024  -2.4797  -2.4583  -2.4200
    -2.3746  -2.3555  -2.3095  -2.2899  -2.2587  -2.2457  -2.2241  -2.1968
[...]
    -2.3549  -2.3231  -2.2988  -2.2783  -2.2431  -2.1910  -2.1538  -2.0995
    -2.0709  -2.0317  -1.9730  -1.9549  -1.9224  -1.8565  -1.8039  -1.7589
    -1.6370  -1.5604  -1.5161  -1.4611  -1.3221  -1.2632  -1.2315  -1.1950
    -1.0927  -1.0206  -0.9702  -0.9289  -0.8001  -0.7677  -0.6535  -0.5977
    -0.2258   0.0361   0.1991   0.2860   0.4501   0.6249   0.7734   0.9074
     0.9703   1.0076   1.0786   1.1073   1.1361   1.1960   1.2157   1.2494
     1.2672   1.3179   1.3432   1.4078   1.4390   1.4905   1.5289   1.5921
     1.6179   1.6498   1.6680   1.6799   1.7041   1.7487   1.7835   1.8063
     1.8359   1.8536   1.9008   1.9196   1.9488   1.9597   1.9959   2.0073
     2.0374   2.0660   2.0841   2.1224   2.1411   2.1651   2.2191   2.2892
     2.2971   2.3116

          k = 0.3333-0.0000 0.0000 (287748 PWs)   bands (ev):

   -70.1330 -69.9380 -69.9038 -69.2663 -56.0354 -55.9252 -55.9131 -55.8904
   -55.8814 -55.8728 -55.8654 -55.8555 -55.8547 -55.8362 -55.8180 -55.8116
   -55.7835 -55.7752 -55.6649 -55.6342 -42.5574 -42.0556 -42.0402 -41.5486
   -41.5471 -41.4510 -41.1637 -41.0281 -41.0188 -40.8723 -40.8467 -40.6158
   -32.2142 -32.1526 -32.1480 -32.1332 -32.1220 -32.1138 -32.1046 -32.0984
   -32.0896 -32.0778 -32.0731 -32.0637 -32.0539 -32.0444 -32.0368 -32.0304
   -32.0228 -32.0108 -31.9980 -31.9838 -31.9709 -31.9650 -31.9521 -31.9430
   -31.9390 -31.9346 -31.9264 -31.9219 -31.9177 -31.9100 -31.9050 -31.8956
   -31.8905 -31.8845 -31.8768 -31.8669 -31.8611 -31.8591 -31.8569 -31.8509
   -31.8337 -31.8220 -31.7891 -31.7537 -31.7299 -31.7190 -31.7038 -31.6784
   -15.7471 -15.5373 -15.2210 -14.9559 -14.6334 -14.5083 -14.2141 -14.1132
   -13.9829 -13.8686 -13.6873 -13.6152 -13.4884 -13.4387 -13.3087 -13.2978
   -13.2696 -13.2144 -13.1574 -13.0760 -13.0699 -13.0509 -13.0124 -12.9917
   -12.9501 -12.9114 -12.8940 -12.8819 -12.8678 -12.8560 -12.7846 -12.7596
    -7.1684  -6.8708  -6.7167  -6.4826  -6.4528  -6.2932  -6.2058  -6.1100
    -5.9349  -5.8971  -5.6769  -5.6409  -5.5909  -5.5541  -5.5213  -5.4810
    -5.4014  -5.3575  -5.3111  -5.2656  -5.2218  -5.1797  -5.1040  -5.0814
    -5.0668  -5.0333  -5.0007  -4.9456  -4.8755  -4.8012  -4.7829  -4.6992
    -4.6623  -4.5901  -4.5483  -4.4420  -4.3962  -4.3336  -4.3139  -4.2697
    -4.2469  -4.2068  -4.1633  -4.1460  -4.0993  -4.0675  -4.0185  -3.9881
    -3.9424  -3.8646  -3.7734  -3.6584  -3.6149  -3.5464  -3.5106  -3.4839
    -3.4062  -3.3774  -3.3667  -3.3431  -3.2447  -3.2110  -3.1643  -3.1271
    -3.0900  -3.0472  -2.9902  -2.9721  -2.9166  -2.8713  -2.8427  -2.8117
    -2.7552  -2.7253  -2.6581  -2.4984  -2.4747  -2.4529  -2.4256  -2.4137
    -2.3888  -2.3763  -2.2482  -2.2178  -2.1650  -2.1521  -2.1328  -2.0843
    -2.0486  -2.0188  -2.0094  -1.9670  -1.9296  -1.9004  -1.8196  -1.7461
    -1.7057  -1.5760  -1.4947  -1.4455  -1.3638  -1.3053  -1.1968  -1.1310
    -1.0782  -1.0383  -0.9842  -0.9606  -0.7889  -0.7349  -0.6486  -0.6018
    -0.2164   0.0613   0.1587   0.2921   0.4072   0.6776   0.7628   0.9076
     0.9630   1.0118   1.0316   1.1111   1.1289   1.1434   1.2187   1.2378
     1.2871   1.3083   1.3535   1.4032   1.5144   1.5295   1.5615   1.5873
     1.6162   1.6285   1.6504   1.6864   1.6879   1.7279   1.7779   1.7996
     1.8254   1.8490   1.8909   1.8995   1.9571   1.9699   1.9865   2.0136
     2.0342   2.0853   2.1074   2.1267   2.1483   2.1641   2.1971   2.2399
     2.2755   2.3141

          k =-0.1667 0.4811 0.0000 (287831 PWs)   bands (ev):

   -70.1330 -69.9380 -69.9038 -69.2663 -56.0354 -55.9252 -55.9131 -55.8904
   -55.8815 -55.8727 -55.8654 -55.8554 -55.8547 -55.8362 -55.8180 -55.8116
   -55.7835 -55.7752 -55.6649 -55.6342 -42.5574 -42.0556 -42.0402 -41.5486
   -41.5471 -41.4511 -41.1637 -41.0281 -41.0188 -40.8723 -40.8467 -40.6158
   -32.2133 -32.1534 -32.1484 -32.1308 -32.1201 -32.1147 -32.1028 -32.0970
   -32.0861 -32.0780 -32.0747 -32.0668 -32.0587 -32.0439 -32.0398 -32.0375
   -32.0174 -32.0119 -31.9944 -31.9802 -31.9754 -31.9673 -31.9540 -31.9484
   -31.9464 -31.9339 -31.9261 -31.9220 -31.9117 -31.9022 -31.8993 -31.8920
   -31.8897 -31.8813 -31.8768 -31.8665 -31.8644 -31.8573 -31.8550 -31.8515
   -31.8372 -31.8218 -31.7939 -31.7537 -31.7301 -31.7191 -31.7034 -31.6787
   -15.7614 -15.4825 -15.2815 -14.9350 -14.6799 -14.4398 -14.2619 -14.0784
   -13.9995 -13.8123 -13.7561 -13.5917 -13.4883 -13.4104 -13.3271 -13.3182
   -13.2632 -13.1745 -13.1528 -13.1022 -13.0874 -13.0407 -13.0308 -12.9710
   -12.9496 -12.9474 -12.9297 -12.8983 -12.8576 -12.8031 -12.7770 -12.7574
    -7.2201  -6.7525  -6.6581  -6.4927  -6.4073  -6.2519  -6.1919  -6.0950
    -5.9929  -5.9124  -5.7836  -5.7518  -5.6758  -5.6494  -5.6204  -5.5265
    -5.3973  -5.3102  -5.2927  -5.2693  -5.1984  -5.1650  -5.1292  -5.0825
    -5.0345  -4.9690  -4.9541  -4.9016  -4.8475  -4.8387  -4.7151  -4.6898
    -4.6513  -4.5353  -4.5108  -4.4512  -4.4330  -4.3926  -4.3518  -4.3230
    -4.2590  -4.1928  -4.1305  -4.0846  -4.0582  -4.0293  -4.0122  -3.9326
    -3.9068  -3.8565  -3.6943  -3.6714  -3.5994  -3.5097  -3.5039  -3.4555
    -3.4392  -3.4180  -3.3652  -3.3361  -3.2948  -3.2612  -3.2295  -3.1660
    -3.1234  -3.0766  -3.0064  -2.9785  -2.9164  -2.8613  -2.7664  -2.7103
    -2.6787  -2.6201  -2.5913  -2.5328  -2.5207  -2.4892  -2.4562  -2.4084
    -2.3878  -2.3616  -2.3176  -2.2772  -2.2503  -2.2155  -2.2031  -2.1725
    -2.1585  -2.0995  -2.0005  -1.9660  -1.9012  -1.8410  -1.7955  -1.7509
    -1.6106  -1.5564  -1.4637  -1.4144  -1.3231  -1.2645  -1.2230  -1.2076
    -1.0837  -1.0059  -0.9150  -0.8554  -0.8108  -0.7436  -0.6101  -0.5817
    -0.2196   0.0312   0.1939   0.2757   0.4541   0.6244   0.7763   0.8933
     0.9421   0.9860   1.0814   1.1049   1.1295   1.1936   1.2129   1.2333
     1.2736   1.3304   1.3423   1.4053   1.4147   1.4546   1.4856   1.5703
     1.6351   1.6490   1.6795   1.7079   1.7289   1.7514   1.7833   1.8013
     1.8074   1.8250   1.8573   1.8864   1.9153   1.9565   1.9722   2.0115
     2.0149   2.0624   2.0772   2.1072   2.1550   2.1885   2.2116   2.2536
     2.3153   2.3276

          k =-0.3333 0.3849 0.0000 (287831 PWs)   bands (ev):

   -70.1330 -69.9380 -69.9038 -69.2663 -56.0354 -55.9252 -55.9131 -55.8904
   -55.8814 -55.8727 -55.8654 -55.8555 -55.8547 -55.8362 -55.8180 -55.8116
   -55.7835 -55.7752 -55.6649 -55.6342 -42.5574 -42.0556 -42.0402 -41.5486
   -41.5472 -41.4511 -41.1637 -41.0281 -41.0188 -40.8723 -40.8467 -40.6158
   -32.2137 -32.1521 -32.1468 -32.1304 -32.1219 -32.1133 -32.1057 -32.0970
   -32.0890 -32.0789 -32.0759 -32.0609 -32.0595 -32.0463 -32.0375 -32.0351
   -32.0231 -32.0121 -31.9981 -31.9770 -31.9743 -31.9647 -31.9515 -31.9482
   -31.9405 -31.9340 -31.9252 -31.9198 -31.9123 -31.9072 -31.9036 -31.8921
   -31.8892 -31.8826 -31.8778 -31.8679 -31.8654 -31.8579 -31.8567 -31.8517
   -31.8351 -31.8214 -31.7904 -31.7537 -31.7302 -31.7190 -31.7038 -31.6790
   -15.7451 -15.5384 -15.2213 -14.9559 -14.6513 -14.4985 -14.2103 -14.0807
   -14.0034 -13.8802 -13.7284 -13.5747 -13.4636 -13.4126 -13.3566 -13.2690
   -13.2341 -13.1992 -13.1877 -13.1078 -13.0895 -13.0710 -13.0075 -12.9864
   -12.9627 -12.9242 -12.9120 -12.8763 -12.8609 -12.8363 -12.7679 -12.7530
    -7.1592  -6.8636  -6.6877  -6.4925  -6.4350  -6.2525  -6.1918  -6.1248
    -5.9344  -5.8371  -5.7092  -5.7068  -5.6639  -5.5919  -5.5776  -5.5206
    -5.4417  -5.3648  -5.3291  -5.2967  -5.2175  -5.1268  -5.1092  -5.0652
    -5.0405  -5.0046  -4.9788  -4.9254  -4.8970  -4.8168  -4.7158  -4.6602
    -4.6429  -4.5819  -4.5468  -4.4850  -4.4215  -4.3579  -4.3329  -4.3178
    -4.2713  -4.2057  -4.1703  -4.1174  -4.0859  -4.0480  -3.9764  -3.9582
    -3.9167  -3.8445  -3.7133  -3.6645  -3.5798  -3.5521  -3.5190  -3.4579
    -3.4320  -3.3388  -3.3053  -3.2948  -3.2574  -3.2372  -3.1886  -3.1530
    -3.1231  -3.0705  -3.0228  -2.9996  -2.9569  -2.8415  -2.7635  -2.7218
    -2.6785  -2.6645  -2.6263  -2.5452  -2.4967  -2.4948  -2.4485  -2.4273
    -2.4069  -2.3711  -2.3273  -2.2775  -2.2493  -2.2115  -2.1848  -2.1499
    -2.0847  -2.0474  -1.9966  -1.9523  -1.9240  -1.9036  -1.7865  -1.7093
    -1.6439  -1.5575  -1.5237  -1.4729  -1.3288  -1.2226  -1.2040  -1.1565
    -1.1211  -1.0426  -0.9546  -0.8831  -0.7271  -0.7095  -0.6228  -0.5656
    -0.2196   0.0534   0.1479   0.2878   0.4131   0.6913   0.7675   0.8822
     0.9384   0.9957   1.0590   1.0921   1.1261   1.1570   1.1854   1.2296
     1.2569   1.3155   1.3379   1.4221   1.4598   1.4964   1.5470   1.5695
     1.6183   1.6467   1.6729   1.6956   1.7121   1.7392   1.7592   1.7939
     1.8079   1.8330   1.8564   1.8789   1.8995   1.9417   1.9682   1.9944
     2.0273   2.0650   2.0767   2.1308   2.1542   2.1808   2.2279   2.2889
     2.3008   2.3533

          k = 0.5000 0.0962 0.0000 (287831 PWs)   bands (ev):

   -70.1330 -69.9380 -69.9038 -69.2663 -56.0354 -55.9252 -55.9132 -55.8904
   -55.8814 -55.8728 -55.8655 -55.8555 -55.8546 -55.8362 -55.8180 -55.8116
   -55.7835 -55.7752 -55.6649 -55.6342 -42.5574 -42.0556 -42.0402 -41.5485
   -41.5472 -41.4511 -41.1637 -41.0281 -41.0188 -40.8723 -40.8467 -40.6158
   -32.2137 -32.1510 -32.1466 -32.1316 -32.1233 -32.1117 -32.1027 -32.0979
   -32.0943 -32.0776 -32.0730 -32.0638 -32.0569 -32.0474 -32.0378 -32.0332
   -32.0298 -32.0077 -31.9982 -31.9797 -31.9697 -31.9678 -31.9515 -31.9404
   -31.9362 -31.9346 -31.9271 -31.9208 -31.9167 -31.9079 -31.9036 -31.8931
   -31.8912 -31.8840 -31.8766 -31.8663 -31.8626 -31.8593 -31.8569 -31.8542
   -31.8351 -31.8213 -31.7881 -31.7537 -31.7302 -31.7191 -31.7047 -31.6786
   -15.7349 -15.5634 -15.1939 -14.9690 -14.6292 -14.5294 -14.1843 -14.0922
   -14.0006 -13.9077 -13.7044 -13.6096 -13.4450 -13.3564 -13.3433 -13.3000
   -13.2484 -13.2034 -13.2003 -13.1413 -13.0653 -13.0359 -13.0264 -13.0054
   -12.9462 -12.9240 -12.9112 -12.8694 -12.8600 -12.8470 -12.7703 -12.7489
    -7.0977  -6.9514  -6.6822  -6.5007  -6.4387  -6.2289  -6.2136  -6.1515
    -5.9099  -5.8505  -5.7313  -5.6638  -5.6476  -5.5608  -5.5281  -5.4889
    -5.4388  -5.4084  -5.3180  -5.2644  -5.2128  -5.1549  -5.1187  -5.0837
    -5.0554  -5.0044  -4.9769  -4.9350  -4.8744  -4.8260  -4.7340  -4.7007
    -4.6296  -4.5972  -4.5697  -4.5310  -4.3894  -4.3544  -4.3274  -4.2937
    -4.2669  -4.2407  -4.1564  -4.1024  -4.0906  -4.0645  -4.0257  -3.9360
    -3.8789  -3.8256  -3.7160  -3.6855  -3.6355  -3.5343  -3.4865  -3.4319
    -3.3848  -3.3488  -3.3372  -3.2735  -3.2502  -3.2234  -3.2046  -3.1444
    -3.0795  -3.0630  -3.0366  -2.9952  -2.9030  -2.8765  -2.8287  -2.7709
    -2.7266  -2.6550  -2.6087  -2.5157  -2.5057  -2.4713  -2.4456  -2.4152
    -2.3800  -2.3381  -2.3191  -2.2760  -2.2538  -2.2168  -2.1783  -2.1429
    -2.1348  -2.0840  -2.0192  -1.9657  -1.9074  -1.8798  -1.7714  -1.7222
    -1.6915  -1.5686  -1.5026  -1.4548  -1.3192  -1.2638  -1.1969  -1.1443
    -1.0865  -0.9913  -0.9690  -0.9063  -0.7494  -0.6814  -0.6439  -0.5757
    -0.2053   0.0841   0.1178   0.2788   0.4010   0.6819   0.7910   0.8882
     0.9303   0.9986   1.0191   1.0729   1.0953   1.1500   1.2061   1.2483
     1.2635   1.3115   1.3461   1.4391   1.4821   1.5262   1.5464   1.5670
     1.6152   1.6410   1.6712   1.6938   1.7126   1.7313   1.7637   1.7727
     1.8078   1.8399   1.8610   1.8891   1.9119   1.9213   1.9473   2.0093
     2.0216   2.0550   2.0915   2.1379   2.1452   2.1803   2.2128   2.2477
     2.2815   2.3416

          k =-0.3333-0.3849 0.0000 (287831 PWs)   bands (ev):

   -70.1330 -69.9380 -69.9038 -69.2663 -56.0354 -55.9252 -55.9131 -55.8904
   -55.8814 -55.8728 -55.8655 -55.8555 -55.8547 -55.8362 -55.8180 -55.8116
   -55.7835 -55.7752 -55.6649 -55.6342 -42.5574 -42.0556 -42.0402 -41.5486
   -41.5472 -41.4511 -41.1637 -41.0281 -41.0188 -40.8723 -40.8467 -40.6158
   -32.2135 -32.1518 -32.1474 -32.1315 -32.1227 -32.1131 -32.1010 -32.0986
   -32.0899 -32.0778 -32.0727 -32.0678 -32.0571 -32.0468 -32.0397 -32.0354
   -32.0226 -32.0086 -31.9962 -31.9834 -31.9706 -31.9660 -31.9528 -31.9442
   -31.9369 -31.9349 -31.9278 -31.9225 -31.9137 -31.9070 -31.9010 -31.8928
   -31.8908 -31.8842 -31.8767 -31.8642 -31.8630 -31.8578 -31.8570 -31.8545
   -31.8360 -31.8215 -31.7899 -31.7537 -31.7301 -31.7191 -31.7045 -31.6785
   -15.7452 -15.5383 -15.2213 -14.9561 -14.6507 -14.4975 -14.2105 -14.0811
   -14.0078 -13.8785 -13.7254 -13.5767 -13.4637 -13.4127 -13.3557 -13.2642
   -13.2368 -13.2008 -13.1867 -13.1120 -13.0881 -13.0686 -13.0089 -12.9890
   -12.9605 -12.9225 -12.9123 -12.8773 -12.8594 -12.8375 -12.7683 -12.7527
    -7.1564  -6.8615  -6.6840  -6.4822  -6.4439  -6.2477  -6.2002  -6.1236
    -5.9382  -5.8741  -5.7544  -5.6972  -5.6538  -5.5926  -5.5634  -5.5147
    -5.4351  -5.3589  -5.3056  -5.2848  -5.1924  -5.1310  -5.1134  -5.0657
    -5.0397  -5.0092  -4.9679  -4.9436  -4.8933  -4.8090  -4.7157  -4.6781
    -4.6368  -4.5980  -4.5645  -4.4905  -4.4182  -4.3584  -4.3311  -4.3198
    -4.2604  -4.2021  -4.1729  -4.1185  -4.0886  -4.0553  -3.9961  -3.9566
    -3.8876  -3.8014  -3.7148  -3.6568  -3.5725  -3.5546  -3.5106  -3.4572
    -3.4279  -3.3393  -3.3202  -3.2997  -3.2634  -3.2355  -3.1927  -3.1687
    -3.1386  -3.0678  -3.0237  -3.0095  -2.9483  -2.8331  -2.7671  -2.7134
    -2.6776  -2.6542  -2.6202  -2.5513  -2.5086  -2.4944  -2.4422  -2.4330
    -2.4103  -2.3736  -2.3291  -2.2758  -2.2318  -2.2136  -2.1965  -2.1599
    -2.0958  -2.0527  -2.0029  -1.9475  -1.9156  -1.8952  -1.8061  -1.7116
    -1.6670  -1.5595  -1.5222  -1.4641  -1.3003  -1.2188  -1.2063  -1.1405
    -1.1030  -1.0335  -0.9425  -0.8822  -0.7500  -0.7113  -0.6314  -0.5981
    -0.2034   0.0568   0.1549   0.2793   0.4103   0.6817   0.7599   0.8630
     0.9375   0.9959   1.0498   1.0878   1.1312   1.1695   1.2055   1.2460
     1.2662   1.2999   1.3651   1.4085   1.4711   1.4892   1.5557   1.5676
     1.6125   1.6570   1.6682   1.6964   1.7146   1.7320   1.7600   1.7829
     1.8206   1.8294   1.8683   1.8833   1.8950   1.9164   1.9624   2.0061
     2.0162   2.0418   2.0915   2.1129   2.1644   2.1990   2.2288   2.2619
     2.3113   2.3604

          k = 0.5000-0.0962 0.0000 (287831 PWs)   bands (ev):

   -70.1330 -69.9380 -69.9038 -69.2663 -56.0354 -55.9252 -55.9132 -55.8904
   -55.8814 -55.8727 -55.8655 -55.8555 -55.8546 -55.8362 -55.8180 -55.8116
   -55.7835 -55.7752 -55.6649 -55.6342 -42.5574 -42.0556 -42.0402 -41.5485
   -41.5472 -41.4511 -41.1637 -41.0281 -41.0188 -40.8723 -40.8467 -40.6158
   -32.2138 -32.1512 -32.1462 -32.1306 -32.1230 -32.1122 -32.1053 -32.0969
   -32.0936 -32.0777 -32.0755 -32.0605 -32.0569 -32.0472 -32.0371 -32.0328
   -32.0304 -32.0098 -31.9989 -31.9777 -31.9708 -31.9663 -31.9501 -31.9454
   -31.9377 -31.9341 -31.9255 -31.9188 -31.9133 -31.9095 -31.9055 -31.8936
   -31.8897 -31.8820 -31.8777 -31.8688 -31.8639 -31.8595 -31.8571 -31.8522
   -31.8345 -31.8212 -31.7885 -31.7537 -31.7303 -31.7190 -31.7043 -31.6789
   -15.7348 -15.5635 -15.1939 -14.9688 -14.6296 -14.5301 -14.1843 -14.0921
   -13.9962 -13.9101 -13.7073 -13.6073 -13.4445 -13.3569 -13.3438 -13.3006
   -13.2492 -13.2071 -13.1963 -13.1402 -13.0654 -13.0359 -13.0255 -13.0058
   -12.9459 -12.9252 -12.9106 -12.8704 -12.8606 -12.8455 -12.7702 -12.7490
    -7.1005  -6.9515  -6.6853  -6.5015  -6.4390  -6.2292  -6.2089  -6.1555
    -5.9068  -5.8205  -5.6966  -5.6742  -5.6519  -5.5870  -5.5242  -5.4943
    -5.4304  -5.4022  -5.3516  -5.2692  -5.2304  -5.1574  -5.1166  -5.0743
    -5.0548  -5.0032  -4.9692  -4.9230  -4.8983  -4.8370  -4.7232  -4.6962
    -4.6286  -4.5820  -4.5669  -4.5174  -4.3913  -4.3569  -4.3346  -4.2951
    -4.2633  -4.2446  -4.1519  -4.1069  -4.0956  -4.0549  -4.0103  -3.9427
    -3.8940  -3.8480  -3.7235  -3.6844  -3.6408  -3.5378  -3.4909  -3.4321
    -3.3761  -3.3530  -3.3249  -3.2655  -3.2520  -3.2259  -3.2084  -3.1276
    -3.0798  -3.0651  -3.0284  -2.9932  -2.9065  -2.8756  -2.8195  -2.7880
    -2.7261  -2.6613  -2.6097  -2.5117  -2.5044  -2.4703  -2.4435  -2.4090
    -2.3799  -2.3405  -2.3275  -2.2883  -2.2485  -2.2188  -2.1684  -2.1452
    -2.1292  -2.0709  -2.0080  -1.9674  -1.9142  -1.8852  -1.7599  -1.7199
    -1.6797  -1.5664  -1.4977  -1.4642  -1.3404  -1.2656  -1.1962  -1.1585
    -1.0892  -1.0026  -0.9831  -0.9038  -0.7250  -0.6834  -0.6379  -0.5594
    -0.2134   0.0828   0.1125   0.2826   0.4049   0.6843   0.7993   0.8992
     0.9488   0.9779   1.0350   1.0654   1.0965   1.1311   1.1981   1.2310
     1.2711   1.3067   1.3523   1.4360   1.4865   1.5111   1.5526   1.5710
     1.6173   1.6353   1.6716   1.6975   1.7108   1.7380   1.7616   1.7748
     1.8022   1.8346   1.8583   1.8765   1.9130   1.9250   1.9650   1.9937
     2.0387   2.0636   2.0974   2.1384   2.1576   2.1666   2.2089   2.2464
     2.2941   2.3415

     the Fermi energy is    -0.7215 ev

!    total energy              =  -12400.39341725 Ry

     total all-electron energy =   -286173.400907 Ry
     estimated scf accuracy    <       0.00000004 Ry
     smearing contrib. (-TS)   =      -0.00834705 Ry
     internal energy E=F+TS    =  -12400.38507020 Ry

     The total energy is F=E-TS. E is the sum of the following terms:
     one-electron contribution =  -21932.90153606 Ry
     hartree contribution      =   11002.10029817 Ry
     xc contribution           =    -595.74091033 Ry
     ewald contribution        =    8345.27514432 Ry
     Hubbard energy            =       0.69176982 Ry
     one-center paw contrib.   =   -9219.80983612 Ry

     total magnetization       =    12.48 Bohr mag/cell
     absolute magnetization    =    19.68 Bohr mag/cell

     convergence has been achieved in  20 iterations

     Writing output data file ./tmp/adatom.save/
 
     init_run     :    144.27s CPU    152.14s WALL (       1 calls)
     electrons    :   4661.36s CPU   4691.95s WALL (       1 calls)

     Called by init_run:
     wfcinit      :    110.08s CPU    112.23s WALL (       1 calls)
     potinit      :     10.14s CPU     12.29s WALL (       1 calls)
     hinit0       :     15.89s CPU     18.51s WALL (       1 calls)

     Called by electrons:
     c_bands      :   3846.34s CPU   3860.76s WALL (      20 calls)
     sum_band     :    646.40s CPU    655.11s WALL (      20 calls)
     v_of_rho     :     28.53s CPU     29.40s WALL (      21 calls)
     newd         :     33.87s CPU     40.15s WALL (      21 calls)
     PAW_pot      :     16.15s CPU     16.91s WALL (      21 calls)
     mix_rho      :     92.16s CPU     92.88s WALL (      20 calls)

     Called by c_bands:
     init_us_2    :     29.85s CPU     29.96s WALL (    1680 calls)
     cegterg      :   3738.85s CPU   3752.36s WALL (     800 calls)

     Called by *egterg:
     cdiaghg      :    298.52s CPU    300.55s WALL (    4393 calls)
     h_psi        :   2190.72s CPU   2201.31s WALL (    4433 calls)
     s_psi        :    215.45s CPU    215.75s WALL (    4473 calls)
     g_psi        :      6.81s CPU      6.83s WALL (    3593 calls)

     Called by h_psi:
     h_psi:calbec :    231.66s CPU    232.06s WALL (    4433 calls)
     vloc_psi     :   1660.10s CPU   1669.35s WALL (    4433 calls)
     add_vuspsi   :    210.12s CPU    210.57s WALL (    4433 calls)
     vhpsi        :     71.26s CPU     71.46s WALL (    4433 calls)

     General routines
     calbec       :    355.22s CPU    355.82s WALL (   10506 calls)
     fft          :     18.33s CPU     20.05s WALL (     519 calls)
     ffts         :     52.67s CPU     52.93s WALL (   14677 calls)
     fftw         :   1876.57s CPU   1886.76s WALL ( 1243462 calls)
     interpolate  :      1.05s CPU      1.09s WALL (      42 calls)
     davcio       :      0.01s CPU      0.15s WALL (      40 calls)
 
     Parallel routines

     Hubbard U routines
     new_ns       :     13.33s CPU     13.94s WALL (      20 calls)
     vhpsi        :     71.26s CPU     71.46s WALL (    4433 calls)
 
     PWSCF        :      1h20m CPU      1h21m WALL

 
   This run was terminated on:  20:12:52  20Jul2023            

=------------------------------------------------------------------------------=
   JOB DONE.
=------------------------------------------------------------------------------=
