 
             +---------------------------------------------------+
             |                                                   |
             |                   WANNIER90                       |
             |                                                   |
             +---------------------------------------------------+
             |                                                   |
             |        Welcome to the Maximally-Localized         |
             |        Generalized Wannier Functions code         |
             |            http://www.wannier.org                 |
             |                                                   |
             |                                                   |
             |  Wannier90 Developer Group:                       |
             |    Giovanni Pizzi    (EPFL)                       |
             |    Valerio Vitale    (Cambridge)                  |
             |    David Vanderbilt  (Rutgers University)         |
             |    Nicola Marzari    (EPFL)                       |
             |    Ivo Souza         (Universidad del Pais Vasco) |
             |    Arash A. Mostofi  (Imperial College London)    |
             |    Jonathan R. Yates (University of Oxford)       |
             |                                                   |
             |  For the full list of Wannier90 3.x authors,      |
             |  please check the code documentation and the      |
             |  README on the GitHub page of the code            |
             |                                                   |
             |                                                   |
             |  Please cite                                      |
             |                                                   |
             |  [ref] "Wannier90 as a community code:            |
             |        new features and applications",            |
             |        G. Pizzi et al., J. Phys. Cond. Matt. 32,  |
             |        165902 (2020).                             |
             |        http://doi.org/10.1088/1361-648X/ab51ff    |
             |                                                   |
             |  in any publications arising from the use of      |
             |  this code. For the method please cite            |
             |                                                   |
             |  [ref] "Maximally Localized Generalised Wannier   |
             |         Functions for Composite Energy Bands"     |
             |         N. Marzari and D. Vanderbilt              |
             |         Phys. Rev. B 56 12847 (1997)              |
             |                                                   |
             |  [ref] "Maximally Localized Wannier Functions     |
             |         for Entangled Energy Bands"               |
             |         I. Souza, N. Marzari and D. Vanderbilt    |
             |         Phys. Rev. B 65 035109 (2001)             |
             |                                                   |
             |                                                   |
             | Copyright (c) 1996-2020                           |
             |        The Wannier90 Developer Group and          |
             |        individual contributors                    |
             |                                                   |
             |      Release: 3.1.0        5th March    2020      |
             |                                                   |
             | This program is free software; you can            |
             | redistribute it and/or modify it under the terms  |
             | of the GNU General Public License as published by |
             | the Free Software Foundation; either version 2 of |
             | the License, or (at your option) any later version|
             |                                                   |
             | This program is distributed in the hope that it   |
             | will be useful, but WITHOUT ANY WARRANTY; without |
             | even the implied warranty of MERCHANTABILITY or   |
             | FITNESS FOR A PARTICULAR PURPOSE. See the GNU     |
             | General Public License for more details.          |
             |                                                   |
             | You should have received a copy of the GNU General|
             | Public License along with this program; if not,   |
             | write to the Free Software Foundation, Inc.,      |
             | 675 Mass Ave, Cambridge, MA 02139, USA.           |
             |                                                   |
             +---------------------------------------------------+
             |    Execution started on 20Jul2023 at 20:23:52     |
             +---------------------------------------------------+
 
 ******************************************************************************
 * -> Using CODATA 2006 constant values                                       *
 *    (http://physics.nist.gov/cuu/Constants/index.html)                      *
 * -> Using Bohr value from CODATA                                            *
 ******************************************************************************
 

 Running in parallel on  80 CPUs

 
                                    ------
                                    SYSTEM
                                    ------
 
                              Lattice Vectors (Ang)
                    a_1    13.784171   0.000000   0.000000
                    a_2    -6.892085  11.937442   0.000000
                    a_3     0.000000   0.000000  23.631430
 
                   Unit Cell Volume:    3888.49848  (Ang^3)
 
                        Reciprocal-Space Vectors (Ang^-1)
                    b_1     0.455826   0.263171   0.000000
                    b_2     0.000000   0.526343   0.000000
                    b_3     0.000000   0.000000   0.265883
  
 *----------------------------------------------------------------------------*
 |   Site       Fractional Coordinate          Cartesian Coordinate (Ang)     |
 +----------------------------------------------------------------------------+
 | Cr   1   0.33333   0.66667   0.16685   |   -0.00000   7.95829   3.94299    |
 | Cr   2   0.58000   0.66667   0.16685   |    3.40010   7.95829   3.94299    |
 | Cr   3   0.85000   0.66667   0.16685   |    7.12182   7.95829   3.94299    |
 | Cr   4   0.10000   0.66667   0.16685   |   -3.21631   7.95829   3.94299    |
 | Nb   1   0.00000   0.00000   0.07170   |    0.00000   0.00000   1.69430    |
 | Nb   2   0.25189   0.00024   0.07201   |    3.47040   0.00287   1.70173    |
 | Nb   3   0.50228   0.00457   0.07084   |    6.89209   0.05454   1.67414    |
 | Nb   4   0.74835   0.00024   0.07201   |   10.31377   0.00287   1.70173    |
 | Nb   5   0.74850   0.25150   0.06828   |    8.58404   3.00230   1.61367    |
 | Nb   6   0.74850   0.49699   0.06828   |    6.89209   5.93284   1.61367    |
 | Nb   7   0.74835   0.74811   0.07201   |    5.15937   8.93055   1.70173    |
 | Nb   8   0.50032   0.75016   0.07859   |    1.72635   8.95500   1.85709    |
 | Nb   9   0.24984   0.75016   0.07859   |   -1.72635   8.95500   1.85709    |
 | Nb  10  -0.00024   0.74811   0.07201   |   -5.15937   8.93055   1.70173    |
 | Nb  11   0.50301   0.25150   0.06828   |    5.20014   3.00230   1.61367    |
 | Nb  12   0.50228   0.49772   0.07084   |    3.49327   5.94145   1.67414    |
 | Nb  13   0.24984   0.49968   0.07859   |   -0.00000   5.96488   1.85709    |
 | Nb  14   0.25189   0.25165   0.07201   |    1.73769   3.00402   1.70173    |
 | Nb  15  -0.00024   0.25165   0.07201   |   -1.73769   3.00402   1.70173    |
 | Nb  16  -0.00457   0.49772   0.07084   |   -3.49327   5.94145   1.67414    |
 | Se   1   0.16721   0.08361   0.00063   |    1.72866   0.99804   0.01486    |
 | Se   2   0.16690   0.08345   0.14290   |    1.72538   0.99615   3.37693    |
 | Se   3   0.41544   0.08143  -0.00156   |    5.16530   0.97207  -0.03681    |
 | Se   4   0.41911   0.08928   0.14188   |    5.16174   1.06572   3.35289    |
 | Se   5   0.66599   0.08143  -0.00156   |    8.61887   0.97207  -0.03681    |
 | Se   6   0.67017   0.08928   0.14188   |    8.62243   1.06572   3.35289    |
 | Se   7   0.91639   0.08361   0.00063   |   12.05551   0.99804   0.01486    |
 | Se   8   0.91655   0.08345   0.14290   |   12.05879   0.99615   3.37693    |
 | Se   9   0.91857   0.33401  -0.00156   |   10.35968   3.98724  -0.03681    |
 | Se  10   0.91072   0.32983   0.14188   |   10.28036   3.93734   3.35289    |
 | Se  11   0.91857   0.58456  -0.00156   |    8.63289   6.97813  -0.03681    |
 | Se  12   0.91072   0.58089   0.14188   |    8.55002   6.93438   3.35289    |
 | Se  13   0.91639   0.83279   0.00063   |    6.89209   9.94136   0.01486    |
 | Se  14   0.91655   0.83310   0.14290   |    6.89209   9.94514   3.37693    |
 | Se  15   0.66220   0.83110   0.00298   |    3.39989   9.92122   0.07043    |
 | Se  16   0.67172   0.83586   0.14547   |    3.49824   9.97800   3.43758    |
 | Se  17   0.41489   0.82979   0.00560   |    0.00000   9.90552   0.13226    |
 | Se  18   0.42825   0.85651   0.14992   |    0.00000  10.22450   3.54287    |
 | Se  19   0.16890   0.83110   0.00298   |   -3.39989   9.92122   0.07043    |
 | Se  20   0.16414   0.83586   0.14547   |   -3.49824   9.97800   3.43758    |
 | Se  21   0.66667   0.33333  -0.00432   |    6.89209   3.97915  -0.10210    |
 | Se  22   0.66667   0.33333   0.14105   |    6.89209   3.97915   3.33317    |
 | Se  23   0.66599   0.58456  -0.00156   |    5.15128   6.97813  -0.03681    |
 | Se  24   0.67017   0.58089   0.14188   |    5.23415   6.93438   3.35289    |
 | Se  25   0.41489   0.58511   0.00560   |    1.68635   6.98468   0.13226    |
 | Se  26   0.42825   0.57175   0.14992   |    1.96259   6.82519   3.54287    |
 | Se  27   0.41544   0.33401  -0.00156   |    3.42449   3.98724  -0.03681    |
 | Se  28   0.41911   0.32983   0.14188   |    3.50381   3.93734   3.35289    |
 | Se  29   0.16890   0.33780   0.00298   |    0.00000   4.03244   0.07043    |
 | Se  30   0.16414   0.32828   0.14547   |    0.00000   3.91888   3.43758    |
 | Se  31   0.17021   0.58511   0.00560   |   -1.68635   6.98468   0.13226    |
 | Se  32   0.14349   0.57175   0.14992   |   -1.96259   6.82519   3.54287    |
 *----------------------------------------------------------------------------*
                                -----------
                                PROJECTIONS
                                -----------
  
 +----------------------------------------------------------------------------+
 |     Frac. Coord.   l mr  r        z-axis               x-axis          Z/a |
 +----------------------------------------------------------------------------+
 |  0.33  0.67  0.17  2  1  1  0.000  0.000  1.000  1.000  0.000  0.000   1.0 |
 |  0.33  0.67  0.17  2  2  1  0.000  0.000  1.000  1.000  0.000  0.000   1.0 |
 |  0.33  0.67  0.17  2  3  1  0.000  0.000  1.000  1.000  0.000  0.000   1.0 |
 |  0.33  0.67  0.17  2  4  1  0.000  0.000  1.000  1.000  0.000  0.000   1.0 |
 |  0.33  0.67  0.17  2  5  1  0.000  0.000  1.000  1.000  0.000  0.000   1.0 |
 |  0.58  0.67  0.17  2  1  1  0.000  0.000  1.000  1.000  0.000  0.000   1.0 |
 |  0.58  0.67  0.17  2  2  1  0.000  0.000  1.000  1.000  0.000  0.000   1.0 |
 |  0.58  0.67  0.17  2  3  1  0.000  0.000  1.000  1.000  0.000  0.000   1.0 |
 |  0.58  0.67  0.17  2  4  1  0.000  0.000  1.000  1.000  0.000  0.000   1.0 |
 |  0.58  0.67  0.17  2  5  1  0.000  0.000  1.000  1.000  0.000  0.000   1.0 |
 |  0.85  0.67  0.17  2  1  1  0.000  0.000  1.000  1.000  0.000  0.000   1.0 |
 |  0.85  0.67  0.17  2  2  1  0.000  0.000  1.000  1.000  0.000  0.000   1.0 |
 |  0.85  0.67  0.17  2  3  1  0.000  0.000  1.000  1.000  0.000  0.000   1.0 |
 |  0.85  0.67  0.17  2  4  1  0.000  0.000  1.000  1.000  0.000  0.000   1.0 |
 |  0.85  0.67  0.17  2  5  1  0.000  0.000  1.000  1.000  0.000  0.000   1.0 |
 |  0.10  0.67  0.17  2  1  1  0.000  0.000  1.000  1.000  0.000  0.000   1.0 |
 |  0.10  0.67  0.17  2  2  1  0.000  0.000  1.000  1.000  0.000  0.000   1.0 |
 |  0.10  0.67  0.17  2  3  1  0.000  0.000  1.000  1.000  0.000  0.000   1.0 |
 |  0.10  0.67  0.17  2  4  1  0.000  0.000  1.000  1.000  0.000  0.000   1.0 |
 |  0.10  0.67  0.17  2  5  1  0.000  0.000  1.000  1.000  0.000  0.000   1.0 |
 |  0.00  0.00  0.07  2  1  1  0.000  0.000  1.000  1.000  0.000  0.000   1.0 |
 |  0.00  0.00  0.07  2  2  1  0.000  0.000  1.000  1.000  0.000  0.000   1.0 |
 |  0.00  0.00  0.07  2  3  1  0.000  0.000  1.000  1.000  0.000  0.000   1.0 |
 |  0.00  0.00  0.07  2  4  1  0.000  0.000  1.000  1.000  0.000  0.000   1.0 |
 |  0.00  0.00  0.07  2  5  1  0.000  0.000  1.000  1.000  0.000  0.000   1.0 |
 |  0.25  0.00  0.07  2  1  1  0.000  0.000  1.000  1.000  0.000  0.000   1.0 |
 |  0.25  0.00  0.07  2  2  1  0.000  0.000  1.000  1.000  0.000  0.000   1.0 |
 |  0.25  0.00  0.07  2  3  1  0.000  0.000  1.000  1.000  0.000  0.000   1.0 |
 |  0.25  0.00  0.07  2  4  1  0.000  0.000  1.000  1.000  0.000  0.000   1.0 |
 |  0.25  0.00  0.07  2  5  1  0.000  0.000  1.000  1.000  0.000  0.000   1.0 |
 |  0.50  0.00  0.07  2  1  1  0.000  0.000  1.000  1.000  0.000  0.000   1.0 |
 |  0.50  0.00  0.07  2  2  1  0.000  0.000  1.000  1.000  0.000  0.000   1.0 |
 |  0.50  0.00  0.07  2  3  1  0.000  0.000  1.000  1.000  0.000  0.000   1.0 |
 |  0.50  0.00  0.07  2  4  1  0.000  0.000  1.000  1.000  0.000  0.000   1.0 |
 |  0.50  0.00  0.07  2  5  1  0.000  0.000  1.000  1.000  0.000  0.000   1.0 |
 |  0.75  0.00  0.07  2  1  1  0.000  0.000  1.000  1.000  0.000  0.000   1.0 |
 |  0.75  0.00  0.07  2  2  1  0.000  0.000  1.000  1.000  0.000  0.000   1.0 |
 |  0.75  0.00  0.07  2  3  1  0.000  0.000  1.000  1.000  0.000  0.000   1.0 |
 |  0.75  0.00  0.07  2  4  1  0.000  0.000  1.000  1.000  0.000  0.000   1.0 |
 |  0.75  0.00  0.07  2  5  1  0.000  0.000  1.000  1.000  0.000  0.000   1.0 |
 |  0.75  0.25  0.07  2  1  1  0.000  0.000  1.000  1.000  0.000  0.000   1.0 |
 |  0.75  0.25  0.07  2  2  1  0.000  0.000  1.000  1.000  0.000  0.000   1.0 |
 |  0.75  0.25  0.07  2  3  1  0.000  0.000  1.000  1.000  0.000  0.000   1.0 |
 |  0.75  0.25  0.07  2  4  1  0.000  0.000  1.000  1.000  0.000  0.000   1.0 |
 |  0.75  0.25  0.07  2  5  1  0.000  0.000  1.000  1.000  0.000  0.000   1.0 |
 |  0.75  0.50  0.07  2  1  1  0.000  0.000  1.000  1.000  0.000  0.000   1.0 |
 |  0.75  0.50  0.07  2  2  1  0.000  0.000  1.000  1.000  0.000  0.000   1.0 |
 |  0.75  0.50  0.07  2  3  1  0.000  0.000  1.000  1.000  0.000  0.000   1.0 |
 |  0.75  0.50  0.07  2  4  1  0.000  0.000  1.000  1.000  0.000  0.000   1.0 |
 |  0.75  0.50  0.07  2  5  1  0.000  0.000  1.000  1.000  0.000  0.000   1.0 |
 |  0.75  0.75  0.07  2  1  1  0.000  0.000  1.000  1.000  0.000  0.000   1.0 |
 |  0.75  0.75  0.07  2  2  1  0.000  0.000  1.000  1.000  0.000  0.000   1.0 |
 |  0.75  0.75  0.07  2  3  1  0.000  0.000  1.000  1.000  0.000  0.000   1.0 |
 |  0.75  0.75  0.07  2  4  1  0.000  0.000  1.000  1.000  0.000  0.000   1.0 |
 |  0.75  0.75  0.07  2  5  1  0.000  0.000  1.000  1.000  0.000  0.000   1.0 |
 |  0.50  0.75  0.08  2  1  1  0.000  0.000  1.000  1.000  0.000  0.000   1.0 |
 |  0.50  0.75  0.08  2  2  1  0.000  0.000  1.000  1.000  0.000  0.000   1.0 |
 |  0.50  0.75  0.08  2  3  1  0.000  0.000  1.000  1.000  0.000  0.000   1.0 |
 |  0.50  0.75  0.08  2  4  1  0.000  0.000  1.000  1.000  0.000  0.000   1.0 |
 |  0.50  0.75  0.08  2  5  1  0.000  0.000  1.000  1.000  0.000  0.000   1.0 |
 |  0.25  0.75  0.08  2  1  1  0.000  0.000  1.000  1.000  0.000  0.000   1.0 |
 |  0.25  0.75  0.08  2  2  1  0.000  0.000  1.000  1.000  0.000  0.000   1.0 |
 |  0.25  0.75  0.08  2  3  1  0.000  0.000  1.000  1.000  0.000  0.000   1.0 |
 |  0.25  0.75  0.08  2  4  1  0.000  0.000  1.000  1.000  0.000  0.000   1.0 |
 |  0.25  0.75  0.08  2  5  1  0.000  0.000  1.000  1.000  0.000  0.000   1.0 |
 | -0.00  0.75  0.07  2  1  1  0.000  0.000  1.000  1.000  0.000  0.000   1.0 |
 | -0.00  0.75  0.07  2  2  1  0.000  0.000  1.000  1.000  0.000  0.000   1.0 |
 | -0.00  0.75  0.07  2  3  1  0.000  0.000  1.000  1.000  0.000  0.000   1.0 |
 | -0.00  0.75  0.07  2  4  1  0.000  0.000  1.000  1.000  0.000  0.000   1.0 |
 | -0.00  0.75  0.07  2  5  1  0.000  0.000  1.000  1.000  0.000  0.000   1.0 |
 |  0.50  0.25  0.07  2  1  1  0.000  0.000  1.000  1.000  0.000  0.000   1.0 |
 |  0.50  0.25  0.07  2  2  1  0.000  0.000  1.000  1.000  0.000  0.000   1.0 |
 |  0.50  0.25  0.07  2  3  1  0.000  0.000  1.000  1.000  0.000  0.000   1.0 |
 |  0.50  0.25  0.07  2  4  1  0.000  0.000  1.000  1.000  0.000  0.000   1.0 |
 |  0.50  0.25  0.07  2  5  1  0.000  0.000  1.000  1.000  0.000  0.000   1.0 |
 |  0.50  0.50  0.07  2  1  1  0.000  0.000  1.000  1.000  0.000  0.000   1.0 |
 |  0.50  0.50  0.07  2  2  1  0.000  0.000  1.000  1.000  0.000  0.000   1.0 |
 |  0.50  0.50  0.07  2  3  1  0.000  0.000  1.000  1.000  0.000  0.000   1.0 |
 |  0.50  0.50  0.07  2  4  1  0.000  0.000  1.000  1.000  0.000  0.000   1.0 |
 |  0.50  0.50  0.07  2  5  1  0.000  0.000  1.000  1.000  0.000  0.000   1.0 |
 |  0.25  0.50  0.08  2  1  1  0.000  0.000  1.000  1.000  0.000  0.000   1.0 |
 |  0.25  0.50  0.08  2  2  1  0.000  0.000  1.000  1.000  0.000  0.000   1.0 |
 |  0.25  0.50  0.08  2  3  1  0.000  0.000  1.000  1.000  0.000  0.000   1.0 |
 |  0.25  0.50  0.08  2  4  1  0.000  0.000  1.000  1.000  0.000  0.000   1.0 |
 |  0.25  0.50  0.08  2  5  1  0.000  0.000  1.000  1.000  0.000  0.000   1.0 |
 |  0.25  0.25  0.07  2  1  1  0.000  0.000  1.000  1.000  0.000  0.000   1.0 |
 |  0.25  0.25  0.07  2  2  1  0.000  0.000  1.000  1.000  0.000  0.000   1.0 |
 |  0.25  0.25  0.07  2  3  1  0.000  0.000  1.000  1.000  0.000  0.000   1.0 |
 |  0.25  0.25  0.07  2  4  1  0.000  0.000  1.000  1.000  0.000  0.000   1.0 |
 |  0.25  0.25  0.07  2  5  1  0.000  0.000  1.000  1.000  0.000  0.000   1.0 |
 | -0.00  0.25  0.07  2  1  1  0.000  0.000  1.000  1.000  0.000  0.000   1.0 |
 | -0.00  0.25  0.07  2  2  1  0.000  0.000  1.000  1.000  0.000  0.000   1.0 |
 | -0.00  0.25  0.07  2  3  1  0.000  0.000  1.000  1.000  0.000  0.000   1.0 |
 | -0.00  0.25  0.07  2  4  1  0.000  0.000  1.000  1.000  0.000  0.000   1.0 |
 | -0.00  0.25  0.07  2  5  1  0.000  0.000  1.000  1.000  0.000  0.000   1.0 |
 | -0.00  0.50  0.07  2  1  1  0.000  0.000  1.000  1.000  0.000  0.000   1.0 |
 | -0.00  0.50  0.07  2  2  1  0.000  0.000  1.000  1.000  0.000  0.000   1.0 |
 | -0.00  0.50  0.07  2  3  1  0.000  0.000  1.000  1.000  0.000  0.000   1.0 |
 | -0.00  0.50  0.07  2  4  1  0.000  0.000  1.000  1.000  0.000  0.000   1.0 |
 | -0.00  0.50  0.07  2  5  1  0.000  0.000  1.000  1.000  0.000  0.000   1.0 |
 |  0.17  0.08  0.00  1  1  1  0.000  0.000  1.000  1.000  0.000  0.000   1.0 |
 |  0.17  0.08  0.00  1  2  1  0.000  0.000  1.000  1.000  0.000  0.000   1.0 |
 |  0.17  0.08  0.00  1  3  1  0.000  0.000  1.000  1.000  0.000  0.000   1.0 |
 |  0.17  0.08  0.14  1  1  1  0.000  0.000  1.000  1.000  0.000  0.000   1.0 |
 |  0.17  0.08  0.14  1  2  1  0.000  0.000  1.000  1.000  0.000  0.000   1.0 |
 |  0.17  0.08  0.14  1  3  1  0.000  0.000  1.000  1.000  0.000  0.000   1.0 |
 |  0.42  0.08 -0.00  1  1  1  0.000  0.000  1.000  1.000  0.000  0.000   1.0 |
 |  0.42  0.08 -0.00  1  2  1  0.000  0.000  1.000  1.000  0.000  0.000   1.0 |
 |  0.42  0.08 -0.00  1  3  1  0.000  0.000  1.000  1.000  0.000  0.000   1.0 |
 |  0.42  0.09  0.14  1  1  1  0.000  0.000  1.000  1.000  0.000  0.000   1.0 |
 |  0.42  0.09  0.14  1  2  1  0.000  0.000  1.000  1.000  0.000  0.000   1.0 |
 |  0.42  0.09  0.14  1  3  1  0.000  0.000  1.000  1.000  0.000  0.000   1.0 |
 |  0.67  0.08 -0.00  1  1  1  0.000  0.000  1.000  1.000  0.000  0.000   1.0 |
 |  0.67  0.08 -0.00  1  2  1  0.000  0.000  1.000  1.000  0.000  0.000   1.0 |
 |  0.67  0.08 -0.00  1  3  1  0.000  0.000  1.000  1.000  0.000  0.000   1.0 |
 |  0.67  0.09  0.14  1  1  1  0.000  0.000  1.000  1.000  0.000  0.000   1.0 |
 |  0.67  0.09  0.14  1  2  1  0.000  0.000  1.000  1.000  0.000  0.000   1.0 |
 |  0.67  0.09  0.14  1  3  1  0.000  0.000  1.000  1.000  0.000  0.000   1.0 |
 |  0.92  0.08  0.00  1  1  1  0.000  0.000  1.000  1.000  0.000  0.000   1.0 |
 |  0.92  0.08  0.00  1  2  1  0.000  0.000  1.000  1.000  0.000  0.000   1.0 |
 |  0.92  0.08  0.00  1  3  1  0.000  0.000  1.000  1.000  0.000  0.000   1.0 |
 |  0.92  0.08  0.14  1  1  1  0.000  0.000  1.000  1.000  0.000  0.000   1.0 |
 |  0.92  0.08  0.14  1  2  1  0.000  0.000  1.000  1.000  0.000  0.000   1.0 |
 |  0.92  0.08  0.14  1  3  1  0.000  0.000  1.000  1.000  0.000  0.000   1.0 |
 |  0.92  0.33 -0.00  1  1  1  0.000  0.000  1.000  1.000  0.000  0.000   1.0 |
 |  0.92  0.33 -0.00  1  2  1  0.000  0.000  1.000  1.000  0.000  0.000   1.0 |
 |  0.92  0.33 -0.00  1  3  1  0.000  0.000  1.000  1.000  0.000  0.000   1.0 |
 |  0.91  0.33  0.14  1  1  1  0.000  0.000  1.000  1.000  0.000  0.000   1.0 |
 |  0.91  0.33  0.14  1  2  1  0.000  0.000  1.000  1.000  0.000  0.000   1.0 |
 |  0.91  0.33  0.14  1  3  1  0.000  0.000  1.000  1.000  0.000  0.000   1.0 |
 |  0.92  0.58 -0.00  1  1  1  0.000  0.000  1.000  1.000  0.000  0.000   1.0 |
 |  0.92  0.58 -0.00  1  2  1  0.000  0.000  1.000  1.000  0.000  0.000   1.0 |
 |  0.92  0.58 -0.00  1  3  1  0.000  0.000  1.000  1.000  0.000  0.000   1.0 |
 |  0.91  0.58  0.14  1  1  1  0.000  0.000  1.000  1.000  0.000  0.000   1.0 |
 |  0.91  0.58  0.14  1  2  1  0.000  0.000  1.000  1.000  0.000  0.000   1.0 |
 |  0.91  0.58  0.14  1  3  1  0.000  0.000  1.000  1.000  0.000  0.000   1.0 |
 |  0.92  0.83  0.00  1  1  1  0.000  0.000  1.000  1.000  0.000  0.000   1.0 |
 |  0.92  0.83  0.00  1  2  1  0.000  0.000  1.000  1.000  0.000  0.000   1.0 |
 |  0.92  0.83  0.00  1  3  1  0.000  0.000  1.000  1.000  0.000  0.000   1.0 |
 |  0.92  0.83  0.14  1  1  1  0.000  0.000  1.000  1.000  0.000  0.000   1.0 |
 |  0.92  0.83  0.14  1  2  1  0.000  0.000  1.000  1.000  0.000  0.000   1.0 |
 |  0.92  0.83  0.14  1  3  1  0.000  0.000  1.000  1.000  0.000  0.000   1.0 |
 |  0.66  0.83  0.00  1  1  1  0.000  0.000  1.000  1.000  0.000  0.000   1.0 |
 |  0.66  0.83  0.00  1  2  1  0.000  0.000  1.000  1.000  0.000  0.000   1.0 |
 |  0.66  0.83  0.00  1  3  1  0.000  0.000  1.000  1.000  0.000  0.000   1.0 |
 |  0.67  0.84  0.15  1  1  1  0.000  0.000  1.000  1.000  0.000  0.000   1.0 |
 |  0.67  0.84  0.15  1  2  1  0.000  0.000  1.000  1.000  0.000  0.000   1.0 |
 |  0.67  0.84  0.15  1  3  1  0.000  0.000  1.000  1.000  0.000  0.000   1.0 |
 |  0.41  0.83  0.01  1  1  1  0.000  0.000  1.000  1.000  0.000  0.000   1.0 |
 |  0.41  0.83  0.01  1  2  1  0.000  0.000  1.000  1.000  0.000  0.000   1.0 |
 |  0.41  0.83  0.01  1  3  1  0.000  0.000  1.000  1.000  0.000  0.000   1.0 |
 |  0.43  0.86  0.15  1  1  1  0.000  0.000  1.000  1.000  0.000  0.000   1.0 |
 |  0.43  0.86  0.15  1  2  1  0.000  0.000  1.000  1.000  0.000  0.000   1.0 |
 |  0.43  0.86  0.15  1  3  1  0.000  0.000  1.000  1.000  0.000  0.000   1.0 |
 |  0.17  0.83  0.00  1  1  1  0.000  0.000  1.000  1.000  0.000  0.000   1.0 |
 |  0.17  0.83  0.00  1  2  1  0.000  0.000  1.000  1.000  0.000  0.000   1.0 |
 |  0.17  0.83  0.00  1  3  1  0.000  0.000  1.000  1.000  0.000  0.000   1.0 |
 |  0.16  0.84  0.15  1  1  1  0.000  0.000  1.000  1.000  0.000  0.000   1.0 |
 |  0.16  0.84  0.15  1  2  1  0.000  0.000  1.000  1.000  0.000  0.000   1.0 |
 |  0.16  0.84  0.15  1  3  1  0.000  0.000  1.000  1.000  0.000  0.000   1.0 |
 |  0.67  0.33 -0.00  1  1  1  0.000  0.000  1.000  1.000  0.000  0.000   1.0 |
 |  0.67  0.33 -0.00  1  2  1  0.000  0.000  1.000  1.000  0.000  0.000   1.0 |
 |  0.67  0.33 -0.00  1  3  1  0.000  0.000  1.000  1.000  0.000  0.000   1.0 |
 |  0.67  0.33  0.14  1  1  1  0.000  0.000  1.000  1.000  0.000  0.000   1.0 |
 |  0.67  0.33  0.14  1  2  1  0.000  0.000  1.000  1.000  0.000  0.000   1.0 |
 |  0.67  0.33  0.14  1  3  1  0.000  0.000  1.000  1.000  0.000  0.000   1.0 |
 |  0.67  0.58 -0.00  1  1  1  0.000  0.000  1.000  1.000  0.000  0.000   1.0 |
 |  0.67  0.58 -0.00  1  2  1  0.000  0.000  1.000  1.000  0.000  0.000   1.0 |
 |  0.67  0.58 -0.00  1  3  1  0.000  0.000  1.000  1.000  0.000  0.000   1.0 |
 |  0.67  0.58  0.14  1  1  1  0.000  0.000  1.000  1.000  0.000  0.000   1.0 |
 |  0.67  0.58  0.14  1  2  1  0.000  0.000  1.000  1.000  0.000  0.000   1.0 |
 |  0.67  0.58  0.14  1  3  1  0.000  0.000  1.000  1.000  0.000  0.000   1.0 |
 |  0.41  0.59  0.01  1  1  1  0.000  0.000  1.000  1.000  0.000  0.000   1.0 |
 |  0.41  0.59  0.01  1  2  1  0.000  0.000  1.000  1.000  0.000  0.000   1.0 |
 |  0.41  0.59  0.01  1  3  1  0.000  0.000  1.000  1.000  0.000  0.000   1.0 |
 |  0.43  0.57  0.15  1  1  1  0.000  0.000  1.000  1.000  0.000  0.000   1.0 |
 |  0.43  0.57  0.15  1  2  1  0.000  0.000  1.000  1.000  0.000  0.000   1.0 |
 |  0.43  0.57  0.15  1  3  1  0.000  0.000  1.000  1.000  0.000  0.000   1.0 |
 |  0.42  0.33 -0.00  1  1  1  0.000  0.000  1.000  1.000  0.000  0.000   1.0 |
 |  0.42  0.33 -0.00  1  2  1  0.000  0.000  1.000  1.000  0.000  0.000   1.0 |
 |  0.42  0.33 -0.00  1  3  1  0.000  0.000  1.000  1.000  0.000  0.000   1.0 |
 |  0.42  0.33  0.14  1  1  1  0.000  0.000  1.000  1.000  0.000  0.000   1.0 |
 |  0.42  0.33  0.14  1  2  1  0.000  0.000  1.000  1.000  0.000  0.000   1.0 |
 |  0.42  0.33  0.14  1  3  1  0.000  0.000  1.000  1.000  0.000  0.000   1.0 |
 |  0.17  0.34  0.00  1  1  1  0.000  0.000  1.000  1.000  0.000  0.000   1.0 |
 |  0.17  0.34  0.00  1  2  1  0.000  0.000  1.000  1.000  0.000  0.000   1.0 |
 |  0.17  0.34  0.00  1  3  1  0.000  0.000  1.000  1.000  0.000  0.000   1.0 |
 |  0.16  0.33  0.15  1  1  1  0.000  0.000  1.000  1.000  0.000  0.000   1.0 |
 |  0.16  0.33  0.15  1  2  1  0.000  0.000  1.000  1.000  0.000  0.000   1.0 |
 |  0.16  0.33  0.15  1  3  1  0.000  0.000  1.000  1.000  0.000  0.000   1.0 |
 |  0.17  0.59  0.01  1  1  1  0.000  0.000  1.000  1.000  0.000  0.000   1.0 |
 |  0.17  0.59  0.01  1  2  1  0.000  0.000  1.000  1.000  0.000  0.000   1.0 |
 |  0.17  0.59  0.01  1  3  1  0.000  0.000  1.000  1.000  0.000  0.000   1.0 |
 |  0.14  0.57  0.15  1  1  1  0.000  0.000  1.000  1.000  0.000  0.000   1.0 |
 |  0.14  0.57  0.15  1  2  1  0.000  0.000  1.000  1.000  0.000  0.000   1.0 |
 |  0.14  0.57  0.15  1  3  1  0.000  0.000  1.000  1.000  0.000  0.000   1.0 |
 +----------------------------------------------------------------------------+
  
                                ------------
                                K-POINT GRID
                                ------------
  
             Grid size =  1 x  1 x  1      Total points =    1
  
 *----------------------------------------------------------------------------*
 | k-point      Fractional Coordinate        Cartesian Coordinate (Ang^-1)    |
 +----------------------------------------------------------------------------+
 |     1    0.00000   0.00000   0.00000   |    0.00000   0.00000   0.00000    |
 *----------------------------------------------------------------------------*
  
  
 *---------------------------------- MAIN ------------------------------------*
 |  Number of Wannier Functions               :               196             |
 |  Number of Objective Wannier Functions     :               196             |
 |  Number of input Bloch states              :               450             |
 |  Output verbosity (1=low, 5=high)          :                 3             |
 |  Timing Level (1=low, 5=high)              :                 1             |
 |  Optimisation (0=memory, 3=speed)          :                 3             |
 |  Length Unit                               :               Ang             |
 |  Post-processing setup (write *.nnkp)      :                 F             |
 |  Using Gamma-only branch of algorithms     :                 F             |
 |  CP code post-processing                   :                 F             |
 |  Wavefunction (UNK) file-type              :       unformatted             |
 |  Wavefunction spin channel                 :                up             |
 *----------------------------------------------------------------------------*
 *------------------------------- WANNIERISE ---------------------------------*
 |  Total number of iterations                :               500             |
 |  Number of CG steps before reset           :                 5             |
 |  Trial step length for line search         :             2.000             |
 |  Convergence tolerence                     :         0.100E-09             |
 |  Convergence window                        :                -1             |
 |  Iterations between writing output         :                50             |
 |  Iterations between backing up to disk     :               100             |
 |  Write r^2_nm to file                      :                 F             |
 |  Write xyz WF centres to file              :                 T             |
 |  Write on-site energies <0n|H|0n> to file  :                 F             |
 |  Use guiding centre to control phases      :                 T             |
 |  Use phases for initial projections        :                 F             |
 |  Iterations before starting guiding centres:                 0             |
 |  Iterations between using guiding centres  :                 1             |
 |  Perform selective localization            :                 F             |
 |  Use constrains in selective localization  :                 F             |
 |  Value of the Lagrange multiplier          :         0.100E+01             |
 *----------------------------------------------------------------------------*
 *------------------------------- DISENTANGLE --------------------------------*
 |  Using band disentanglement                :                 T             |
 |  Total number of iterations                :              4000             |
 |  Mixing ratio                              :             0.500             |
 |  Convergence tolerence                     :         1.000E-10             |
 |  Convergence window                        :                 3             |
 *----------------------------------------------------------------------------*
 *-------------------------------- PLOTTING ----------------------------------*
 |  Plotting Wannier functions                :                 F             |
 |   Size of supercell for plotting           :     2x    2x    2             |
 |   Plotting mode (molecule or crystal)      :           crystal             |
 |   Plotting format                          :          xcrysden             |
 |   Plot radius                              :             3.500             |
 |   Plot scale                               :             1.000             |
 *----------------------------------------------------------------------------*
 |  Plotting Fermi surface                    :                 F             |
 |   Number of plotting points (along b_1)    :                50             |
 |   Plotting format                          :          xcrysden             |
 *----------------------------------------------------------------------------*
 |  Plotting interpolated bandstructure       :                 T             |
 |   Number of K-path sections                :                 4             |
 |   Divisions along first K-path section     :               100             |
 |   Output format                            :           gnuplot             |
 |   Output mode                              :               s-k             |
 *----------------------------------------------------------------------------*
 |   K-space path sections:                                                   |
 |    From: Γ      0.000  0.000  0.000     To: X       0.500  0.000  0.000   |
 |    From: X       0.500  0.000  0.000     To: S       0.500  0.500  0.000   |
 |    From: S       0.500  0.500  0.000     To: Y       0.000  0.500  0.000   |
 |    From: Y       0.000  0.500  0.000     To: Γ      0.000  0.000  0.000   |
 *----------------------------------------------------------------------------*
 |  Plotting Hamiltonian in WF basis          :                 T             |
 *----------------------------------------------------------------------------*
 |  Writing data for Van der Waals post-proc  :                 F             |
 *----------------------------------------------------------------------------*
 *------------------------------- TRANSPORT ----------------------------------*
 |  Transport mode                            :              bulk             |
 |   Hamiltonian from external files          :                 F             |
 |   System extended in                       :              none             |
 |   Centre of the unit cell to which WF are translated (fract. coords):      |
 |                                       0.000000,    0.000000,    0.000000   |
 |  Fermi energy (eV)                         :             0.000             |
 *----------------------------------------------------------------------------*
 Time to read parameters        0.017 (sec)

 *---------------------------------- K-MESH ----------------------------------*
 +----------------------------------------------------------------------------+
 |                    Distance to Nearest-Neighbour Shells                    |
 |                    ------------------------------------                    |
 |          Shell             Distance (Ang^-1)          Multiplicity         |
 |          -----             -----------------          ------------         |
 |             1                   0.265883                      2            |
 |             2                   0.526343                      6            |
 |             3                   0.531765                      2            |
 |             4                   0.589686                     12            |
 |             5                   0.748205                     12            |
 |             6                   0.797648                      2            |
 |             7                   0.911652                      6            |
 |             8                   0.949633                     12            |
 |             9                   0.955656                     12            |
 |            10                   1.052685                      6            |
 |            11                   1.055407                     12            |
 |            12                   1.063530                      2            |
 |            13                   1.085744                     12            |
 |            14                   1.179373                     12            |
 |            15                   1.186648                     12            |
 |            16                   1.211343                     12            |
 |            17                   1.320753                     12            |
 |            18                   1.329413                      2            |
 |            19                   1.392572                     12            |
 |            20                   1.400788                     12            |
 |            21                   1.417727                     24            |
 |            22                   1.429816                     12            |
 |            23                   1.490648                     24            |
 |            24                   1.496410                     12            |
 |            25                   1.579028                      6            |
 |            26                   1.601257                     12            |
 |            27                   1.604836                     24            |
 |            28                   1.611970                     12            |
 |            29                   1.666164                     12            |
 |            30                   1.695726                     12            |
 |            31                   1.752242                     24            |
 |            32                   1.769059                     12            |
 |            33                   1.823305                      6            |
 |            34                   1.842589                     12            |
 |            35                   1.897756                     12            |
 |            36                   1.899267                     12            |
 +----------------------------------------------------------------------------+
 | The b-vectors are chosen automatically                                     |
 | Shell:  1 Multiplicity:  2                                                 |
 | b-vector 1 :        0.000000    0.000000    0.265883      (Ang^-1)         |
 | b-vector 2 :        0.000000    0.000000   -0.265883      (Ang^-1)         |
 | Shell:  1 w_b    7.0727819      (Ang^2)                                    |
 | B1 condition is not satisfied: Adding another shell                        |
 | Shell:  2 Multiplicity:  6                                                 |
 | b-vector 1 :        0.455826    0.263171    0.000000      (Ang^-1)         |
 | b-vector 2 :        0.455826   -0.263171    0.000000      (Ang^-1)         |
 | b-vector 3 :        0.000000    0.526343    0.000000      (Ang^-1)         |
 | b-vector 4 :        0.000000   -0.526343    0.000000      (Ang^-1)         |
 | b-vector 5 :       -0.455826    0.263171    0.000000      (Ang^-1)         |
 | b-vector 6 :       -0.455826   -0.263171    0.000000      (Ang^-1)         |
 | Shell:  1 w_b    7.0727819      (Ang^2)                                    |
 | Shell:  2 w_b    1.2032104      (Ang^2)                                    |
 | The following shells are used:   1,  2                                     |
 +----------------------------------------------------------------------------+
 |                        Shell   # Nearest-Neighbours                        |
 |                        -----   --------------------                        |
 |                          1               2                                 |
 |                          2               6                                 |
 +----------------------------------------------------------------------------+
 | Completeness relation is fully satisfied [Eq. (B1), PRB 56, 12847 (1997)]  |
 +----------------------------------------------------------------------------+
 |                  b_k Vectors (Ang^-1) and Weights (Ang^2)                  |
 |                  ----------------------------------------                  |
 |            No.         b_k(x)      b_k(y)      b_k(z)        w_b           |
 |            ---        --------------------------------     --------        |
 |             1         0.000000    0.000000    0.265883     7.072782        |
 |             2         0.000000    0.000000   -0.265883     7.072782        |
 |             3         0.455826    0.263171    0.000000     1.203210        |
 |             4         0.455826   -0.263171    0.000000     1.203210        |
 |             5         0.000000    0.526343    0.000000     1.203210        |
 |             6         0.000000   -0.526343    0.000000     1.203210        |
 |             7        -0.455826    0.263171    0.000000     1.203210        |
 |             8        -0.455826   -0.263171    0.000000     1.203210        |
 +----------------------------------------------------------------------------+
 |                           b_k Directions (Ang^-1)                          |
 |                           -----------------------                          |
 |            No.           x           y           z                         |
 |            ---        --------------------------------                     |
 |             1         0.000000    0.000000    0.265883                     |
 |             2         0.455826    0.263171    0.000000                     |
 |             3         0.455826   -0.263171    0.000000                     |
 |             4         0.000000    0.526343    0.000000                     |
 +----------------------------------------------------------------------------+
  
 Time to get kmesh              0.012 (sec)
 *============================================================================*
 |                              MEMORY ESTIMATE                               |
 |         Maximum RAM allocated during each phase of the calculation         |
 *============================================================================*
 |                        Disentanglement           42.20 Mb                  |
 |                            Wannierise:           16.18 Mb                  |
 |                                                                            |
 |   N.B. by setting optimisation=0 memory usage will be reduced to:          |
 |                        Disentanglement           42.20 Mb                  |
 |                            Wannierise:           11.49 Mb                  |
 |   However, this will result in more i/o and slow down the calculation      |
 |                          plot_wannier:           16.18 Mb                  |
 *----------------------------------------------------------------------------*
  
 Starting a new Wannier90 calculation ...


 Reading overlaps from infcr.up.mmn    :  Created on 20Jul2023 at 20:20:34

 Reading projections from infcr.up.amn :  Created on 20Jul2023 at 20:19:20

 Time to read overlaps          4.131 (sec)

 *------------------------------- DISENTANGLE --------------------------------*
 +----------------------------------------------------------------------------+
 |                              Energy  Windows                               |
 |                              ---------------                               |
 |                   Outer:  -30.00000  to   30.00000  (eV)                   |
 |                   Inner:   -6.00000  to    2.50000  (eV)                   |
 +----------------------------------------------------------------------------+
 |                        K-points with Frozen States                         |
 |                        ---------------------------                         |
 |     1                                                                      |
 +----------------------------------------------------------------------------+
   Number of target bands to extract:  196
 +----------------------------------------------------------------------------+
 |                                  Windows                                   |
 |                                  -------                                   |
 |               K-point      Ndimwin     Ndimfroz    Nfirstwin               |
 |               ----------------------------------------------               |
 |                   1          370          165          81                  |
 +----------------------------------------------------------------------------+

                   Unitarised projection of Wannier functions                  
                   ------------------------------------------                  
   A_mn = <psi_m|g_n> --> S = A.A^+ --> U = S^-1/2.A
   In dis_project... done
   Using an inner window (linner = T)
   In dis_proj_froz...
 K-point   1 ndimwin: 370 we want the 31 leading eigenvector(s) of QPQ
  lambda(  1)= -0.000000000000
  lambda(  2)= -0.000000000000
  lambda(  3)= -0.000000000000
  lambda(  4)= -0.000000000000
  lambda(  5)= -0.000000000000
  lambda(  6)= -0.000000000000
  lambda(  7)= -0.000000000000
  lambda(  8)= -0.000000000000
  lambda(  9)= -0.000000000000
  lambda( 10)= -0.000000000000
  lambda( 11)= -0.000000000000
  lambda( 12)= -0.000000000000
  lambda( 13)= -0.000000000000
  lambda( 14)= -0.000000000000
  lambda( 15)= -0.000000000000
  lambda( 16)= -0.000000000000
  lambda( 17)= -0.000000000000
  lambda( 18)= -0.000000000000
  lambda( 19)= -0.000000000000
  lambda( 20)= -0.000000000000
  lambda( 21)= -0.000000000000
  lambda( 22)= -0.000000000000
  lambda( 23)= -0.000000000000
  lambda( 24)= -0.000000000000
  lambda( 25)= -0.000000000000
  lambda( 26)= -0.000000000000
  lambda( 27)= -0.000000000000
  lambda( 28)= -0.000000000000
  lambda( 29)= -0.000000000000
  lambda( 30)= -0.000000000000
  lambda( 31)= -0.000000000000
  lambda( 32)= -0.000000000000
  lambda( 33)= -0.000000000000
  lambda( 34)= -0.000000000000
  lambda( 35)= -0.000000000000
  lambda( 36)= -0.000000000000
  lambda( 37)= -0.000000000000
  lambda( 38)= -0.000000000000
  lambda( 39)= -0.000000000000
  lambda( 40)= -0.000000000000
  lambda( 41)= -0.000000000000
  lambda( 42)= -0.000000000000
  lambda( 43)= -0.000000000000
  lambda( 44)= -0.000000000000
  lambda( 45)= -0.000000000000
  lambda( 46)= -0.000000000000
  lambda( 47)= -0.000000000000
  lambda( 48)= -0.000000000000
  lambda( 49)= -0.000000000000
  lambda( 50)= -0.000000000000
  lambda( 51)= -0.000000000000
  lambda( 52)= -0.000000000000
  lambda( 53)= -0.000000000000
  lambda( 54)= -0.000000000000
  lambda( 55)= -0.000000000000
  lambda( 56)= -0.000000000000
  lambda( 57)= -0.000000000000
  lambda( 58)= -0.000000000000
  lambda( 59)= -0.000000000000
  lambda( 60)= -0.000000000000
  lambda( 61)= -0.000000000000
  lambda( 62)= -0.000000000000
  lambda( 63)= -0.000000000000
  lambda( 64)= -0.000000000000
  lambda( 65)= -0.000000000000
  lambda( 66)= -0.000000000000
  lambda( 67)= -0.000000000000
  lambda( 68)= -0.000000000000
  lambda( 69)= -0.000000000000
  lambda( 70)= -0.000000000000
  lambda( 71)= -0.000000000000
  lambda( 72)= -0.000000000000
  lambda( 73)= -0.000000000000
  lambda( 74)= -0.000000000000
  lambda( 75)= -0.000000000000
  lambda( 76)= -0.000000000000
  lambda( 77)= -0.000000000000
  lambda( 78)= -0.000000000000
  lambda( 79)= -0.000000000000
  lambda( 80)= -0.000000000000
  lambda( 81)= -0.000000000000
  lambda( 82)= -0.000000000000
  lambda( 83)= -0.000000000000
  lambda( 84)= -0.000000000000
  lambda( 85)= -0.000000000000
  lambda( 86)= -0.000000000000
  lambda( 87)= -0.000000000000
  lambda( 88)=  0.000000000000
  lambda( 89)=  0.000000000000
  lambda( 90)=  0.000000000000
  lambda( 91)=  0.000000000000
  lambda( 92)=  0.000000000000
  lambda( 93)=  0.000000000000
  lambda( 94)=  0.000000000000
  lambda( 95)=  0.000000000000
  lambda( 96)=  0.000000000000
  lambda( 97)=  0.000000000000
  lambda( 98)=  0.000000000000
  lambda( 99)=  0.000000000000
  lambda(100)=  0.000000000000
  lambda(101)=  0.000000000000
  lambda(102)=  0.000000000000
  lambda(103)=  0.000000000000
  lambda(104)=  0.000000000000
  lambda(105)=  0.000000000000
  lambda(106)=  0.000000000000
  lambda(107)=  0.000000000000
  lambda(108)=  0.000000000000
  lambda(109)=  0.000000000000
  lambda(110)=  0.000000000000
  lambda(111)=  0.000000000000
  lambda(112)=  0.000000000000
  lambda(113)=  0.000000000000
  lambda(114)=  0.000000000000
  lambda(115)=  0.000000000000
  lambda(116)=  0.000000000000
  lambda(117)=  0.000000000000
  lambda(118)=  0.000000000000
  lambda(119)=  0.000000000000
  lambda(120)=  0.000000000000
  lambda(121)=  0.000000000000
  lambda(122)=  0.000000000000
  lambda(123)=  0.000000000000
  lambda(124)=  0.000000000000
  lambda(125)=  0.000000000000
  lambda(126)=  0.000000000000
  lambda(127)=  0.000000000000
  lambda(128)=  0.000000000000
  lambda(129)=  0.000000000000
  lambda(130)=  0.000000000000
  lambda(131)=  0.000000000000
  lambda(132)=  0.000000000000
  lambda(133)=  0.000000000000
  lambda(134)=  0.000000000000
  lambda(135)=  0.000000000000
  lambda(136)=  0.000000000000
  lambda(137)=  0.000000000000
  lambda(138)=  0.000000000000
  lambda(139)=  0.000000000000
  lambda(140)=  0.000000000000
  lambda(141)=  0.000000000000
  lambda(142)=  0.000000000000
  lambda(143)=  0.000000000000
  lambda(144)=  0.000000000000
  lambda(145)=  0.000000000000
  lambda(146)=  0.000000000000
  lambda(147)=  0.000000000000
  lambda(148)=  0.000000000000
  lambda(149)=  0.000000000000
  lambda(150)=  0.000000000000
  lambda(151)=  0.000000000000
  lambda(152)=  0.000000000000
  lambda(153)=  0.000000000000
  lambda(154)=  0.000000000000
  lambda(155)=  0.000000000000
  lambda(156)=  0.000000000000
  lambda(157)=  0.000000000000
  lambda(158)=  0.000000000000
  lambda(159)=  0.000000000000
  lambda(160)=  0.000000000000
  lambda(161)=  0.000000000000
  lambda(162)=  0.000000000000
  lambda(163)=  0.000000000000
  lambda(164)=  0.000000000000
  lambda(165)=  0.000000000000
  lambda(166)=  0.000000000000
  lambda(167)=  0.000000000000
  lambda(168)=  0.000000000000
  lambda(169)=  0.000000000000
  lambda(170)=  0.000000000000
  lambda(171)=  0.000000000000
  lambda(172)=  0.000000000000
  lambda(173)=  0.000000000000
  lambda(174)=  0.000000000000
  lambda(175)=  0.000000000204
  lambda(176)=  0.000000000440
  lambda(177)=  0.000000004506
  lambda(178)=  0.000000005175
  lambda(179)=  0.000000010756
  lambda(180)=  0.000000015585
  lambda(181)=  0.000000024292
  lambda(182)=  0.000000038961
  lambda(183)=  0.000000065037
  lambda(184)=  0.000000079597
  lambda(185)=  0.000000198961
  lambda(186)=  0.000000258446
  lambda(187)=  0.000000307785
  lambda(188)=  0.000000400725
  lambda(189)=  0.000000643597
  lambda(190)=  0.000000702920
  lambda(191)=  0.000001131483
  lambda(192)=  0.000001254862
  lambda(193)=  0.000002181334
  lambda(194)=  0.000002807509
  lambda(195)=  0.000003081675
  lambda(196)=  0.000003610775
  lambda(197)=  0.000004061019
  lambda(198)=  0.000004987450
  lambda(199)=  0.000005056270
  lambda(200)=  0.000006311379
  lambda(201)=  0.000006992731
  lambda(202)=  0.000008693983
  lambda(203)=  0.000010514589
  lambda(204)=  0.000014103037
  lambda(205)=  0.000015095820
  lambda(206)=  0.000017831949
  lambda(207)=  0.000023380706
  lambda(208)=  0.000028362966
  lambda(209)=  0.000033455869
  lambda(210)=  0.000044021199
  lambda(211)=  0.000059627196
  lambda(212)=  0.000067623869
  lambda(213)=  0.000075125557
  lambda(214)=  0.000083411170
  lambda(215)=  0.000112875822
  lambda(216)=  0.000118764182
  lambda(217)=  0.000138831711
  lambda(218)=  0.000199084567
  lambda(219)=  0.000251177801
  lambda(220)=  0.000323901901
  lambda(221)=  0.000385631681
  lambda(222)=  0.000449707624
  lambda(223)=  0.000488758751
  lambda(224)=  0.000579314365
  lambda(225)=  0.000634142886
  lambda(226)=  0.000741753031
  lambda(227)=  0.000858009832
  lambda(228)=  0.000954076706
  lambda(229)=  0.001034508396
  lambda(230)=  0.001408149544
  lambda(231)=  0.001588696948
  lambda(232)=  0.001744780798
  lambda(233)=  0.001945291581
  lambda(234)=  0.002122350980
  lambda(235)=  0.002344809585
  lambda(236)=  0.002643329369
  lambda(237)=  0.003196643829
  lambda(238)=  0.003772497455
  lambda(239)=  0.003828915623
  lambda(240)=  0.004108929980
  lambda(241)=  0.004707233334
  lambda(242)=  0.005397504210
  lambda(243)=  0.005472926362
  lambda(244)=  0.005978019892
  lambda(245)=  0.006393394702
  lambda(246)=  0.006739437475
  lambda(247)=  0.007614970402
  lambda(248)=  0.008478203770
  lambda(249)=  0.009122389851
  lambda(250)=  0.009716404209
  lambda(251)=  0.009969601195
  lambda(252)=  0.010593183694
  lambda(253)=  0.011034626748
  lambda(254)=  0.013059301659
  lambda(255)=  0.013610713629
  lambda(256)=  0.014772740705
  lambda(257)=  0.015252138584
  lambda(258)=  0.017286172635
  lambda(259)=  0.017631049107
  lambda(260)=  0.017921425998
  lambda(261)=  0.018728747555
  lambda(262)=  0.021668773701
  lambda(263)=  0.022613709604
  lambda(264)=  0.024885118382
  lambda(265)=  0.026720979068
  lambda(266)=  0.027319241764
  lambda(267)=  0.028800960722
  lambda(268)=  0.029297114992
  lambda(269)=  0.029708747543
  lambda(270)=  0.030962099221
  lambda(271)=  0.032365096390
  lambda(272)=  0.033747269067
  lambda(273)=  0.034106869512
  lambda(274)=  0.034499728224
  lambda(275)=  0.035080179702
  lambda(276)=  0.037477914202
  lambda(277)=  0.039576412954
  lambda(278)=  0.042489093254
  lambda(279)=  0.043679592860
  lambda(280)=  0.045326962290
  lambda(281)=  0.045741658082
  lambda(282)=  0.046600773842
  lambda(283)=  0.048683239432
  lambda(284)=  0.052723118209
  lambda(285)=  0.055376526556
  lambda(286)=  0.058815303272
  lambda(287)=  0.059426867879
  lambda(288)=  0.061828857000
  lambda(289)=  0.062407175673
  lambda(290)=  0.065354670090
  lambda(291)=  0.066557913870
  lambda(292)=  0.069401537047
  lambda(293)=  0.071146354702
  lambda(294)=  0.073531924807
  lambda(295)=  0.074355823191
  lambda(296)=  0.083108171178
  lambda(297)=  0.085005315399
  lambda(298)=  0.092322845741
  lambda(299)=  0.092694039334
  lambda(300)=  0.099651241047
  lambda(301)=  0.101217835318
  lambda(302)=  0.105720841677
  lambda(303)=  0.108280677012
  lambda(304)=  0.110519387274
  lambda(305)=  0.111239224223
  lambda(306)=  0.115050548518
  lambda(307)=  0.115760236449
  lambda(308)=  0.121024230291
  lambda(309)=  0.124968702037
  lambda(310)=  0.126833384943
  lambda(311)=  0.129165425919
  lambda(312)=  0.136921594034
  lambda(313)=  0.139686957734
  lambda(314)=  0.140310145661
  lambda(315)=  0.148248994010
  lambda(316)=  0.148814767400
  lambda(317)=  0.151830334194
  lambda(318)=  0.155527162096
  lambda(319)=  0.157470769417
  lambda(320)=  0.159629203704
  lambda(321)=  0.163396064345
  lambda(322)=  0.173271455622
  lambda(323)=  0.175080888745
  lambda(324)=  0.177274040822
  lambda(325)=  0.179589210133
  lambda(326)=  0.184998910930
  lambda(327)=  0.187477053088
  lambda(328)=  0.191582800081
  lambda(329)=  0.193868811279
  lambda(330)=  0.197367473265
  lambda(331)=  0.200666591578
  lambda(332)=  0.204932146485
  lambda(333)=  0.210130276887
  lambda(334)=  0.235528292130
  lambda(335)=  0.254654178209
  lambda(336)=  0.423140007402
  lambda(337)=  0.425174543214
  lambda(338)=  0.506043034496
  lambda(339)=  0.583333322184
  lambda(340)=  1.000000000000
  lambda(341)=  1.000000000000
  lambda(342)=  1.000000000000
  lambda(343)=  1.000000000000
  lambda(344)=  1.000000000000
  lambda(345)=  1.000000000000
  lambda(346)=  1.000000000000
  lambda(347)=  1.000000000000
  lambda(348)=  1.000000000000
  lambda(349)=  1.000000000000
  lambda(350)=  1.000000000000
  lambda(351)=  1.000000000000
  lambda(352)=  1.000000000000
  lambda(353)=  1.000000000000
  lambda(354)=  1.000000000000
  lambda(355)=  1.000000000000
  lambda(356)=  1.000000000000
  lambda(357)=  1.000000000000
  lambda(358)=  1.000000000000
  lambda(359)=  1.000000000000
  lambda(360)=  1.000000000000
  lambda(361)=  1.000000000000
  lambda(362)=  1.000000000000
  lambda(363)=  1.000000000000
  lambda(364)=  1.000000000000
  lambda(365)=  1.000000000000
  lambda(366)=  1.000000000000
  lambda(367)=  1.000000000000
  lambda(368)=  1.000000000000
  lambda(369)=  1.000000000000
  lambda(370)=  1.000000000000
 done

                   Extraction of optimally-connected subspace                  
                   ------------------------------------------                  
  Original eigenvalues inside outer window:

  K-point   1   -16.03778 -15.72309 -15.65024 -15.25242 -14.82321 -14.59364 -14.46711 -14.20547 -14.06029 -13.73444 -13.70112 -13.68266 -13.54443 -13.51769 -13.49078 -13.30182 -13.19743 -13.19076 -13.09875 -13.06042
-13.05052 -13.03526 -12.98453 -12.98135 -12.95881 -12.94249 -12.93373 -12.89311 -12.85534 -12.83507 -12.83257 -12.78220  -8.13098  -7.82092  -7.62125  -7.49708  -7.38382  -7.09068  -7.08110  -6.93020
 -6.83882  -6.74392  -6.71464  -6.30042  -6.14134  -5.98392  -5.95994  -5.92765  -5.86797  -5.78519  -5.72147  -5.60183  -5.44507  -5.42182  -5.35575  -5.28175  -5.21878  -5.16748  -5.11081  -5.07829
 -5.01951  -5.00777  -4.93653  -4.91099  -4.87474  -4.86910  -4.80351  -4.75006  -4.71039  -4.66112  -4.60019  -4.50750  -4.49497  -4.45137  -4.41743  -4.39398  -4.36428  -4.30027  -4.15270  -4.06749
 -4.05435  -4.02202  -4.00034  -3.97708  -3.92020  -3.89041  -3.84567  -3.75659  -3.73948  -3.73417  -3.70670  -3.68048  -3.63116  -3.58717  -3.52347  -3.48042  -3.44717  -3.42755  -3.41174  -3.40398
 -3.32560  -3.29787  -3.27176  -3.24069  -3.21300  -3.16867  -3.16104  -3.10867  -3.07367  -3.04102  -2.98628  -2.93487  -2.77005  -2.73535  -2.62333  -2.52933  -2.50811  -2.47830  -2.41884  -2.37005
 -2.34681  -2.33997  -2.31831  -2.29539  -2.24060  -2.18148  -2.16370  -2.14514  -2.10602  -2.06516  -2.04768  -2.02145  -1.98722  -1.97612  -1.94310  -1.92907  -1.86367  -1.74646  -1.72197  -1.60643
 -1.56422  -1.52356  -1.40890  -1.35192  -1.28645  -1.18730  -1.15636  -1.02794  -0.96379  -0.93866  -0.90183  -0.83422  -0.78556  -0.76029  -0.72241  -0.67924  -0.63025  -0.59972  -0.57305  -0.55105
 -0.50558  -0.45155  -0.35804  -0.29069   0.85326   0.88265   1.02389   1.22889   1.39453   1.40342   1.51716   1.55722   1.57978   1.58533   1.62323   1.64389   1.66395   1.67469   1.69813   1.74167
  1.75084   1.76341   1.77166   1.80679   1.81399   1.87717   1.88520   1.89778   1.95567   2.00153   2.04785   2.06961   2.09262   2.11766   2.13754   2.15072   2.17249   2.19287   2.21586   2.23173
  2.28350   2.30288   2.32249   2.33071   2.34355   2.35275   2.38541   2.39500   2.42136   2.46969   2.70266   2.74266   2.80045   2.91316   2.93666   2.96533   2.99517   3.00186   3.05274   3.18511
  3.31198   3.32965   3.39974   3.42620   3.47827   3.53898   3.55867   3.57411   3.61204   3.62703   3.72826   3.77218   3.82940   3.93242   4.07698   4.22370   4.45925   4.48234   4.49435   4.56215
  4.58924   4.81422   4.85188   4.87799   4.94922   4.97791   4.98441   4.99132   5.00525   5.00659   5.09704   5.11868   5.16262   5.16439   5.23430   5.26839   5.27422   5.43863   5.52041   5.57356
  5.60140   5.79121   5.82396   5.86376   5.89746   5.91141   5.92945   5.96605   5.97048   5.98546   6.00700   6.04309   6.13689   6.17096   6.17404   6.24959   6.29052   6.29841   6.31412   6.34401
  6.37352   6.37694   6.38593   6.41458   6.48639   6.49093   6.51473   6.53616   6.61248   6.63414   6.64698   6.72886   6.74426   6.76658   6.78391   6.81829   6.91668   6.92855   6.94432   6.94934
  6.98018   7.00296   7.03856   7.04835   7.06569   7.09398   7.10336   7.11796   7.22370   7.23012   7.24300   7.28490   7.31852   7.32467   7.36452   7.37912   7.40111   7.45945   7.47497   7.47744
  7.49368   7.53795   7.59190   7.62855   7.65352   7.66778   7.68597   7.70239   7.71607   7.72250   7.73111   7.73144   7.76198   7.77180   7.79288   7.84154   7.87740   7.89864   7.92262   7.96306
  7.99112   8.00076   8.01260   8.03107   8.04048   8.10936   8.11407   8.12226   8.13306   8.14441   8.19030   8.30782   8.32937   8.34895   8.38323   8.42311   8.43856   8.44440   8.45221   8.49519
  8.51518   8.52537   8.54014   8.57117   8.58940   8.63129   8.63721   8.64365   8.67339   8.82920
 +---------------------------------------------------------------------+<-- DIS
 |  Iter     Omega_I(i-1)      Omega_I(i)      Delta (frac.)    Time   |<-- DIS
 +---------------------------------------------------------------------+<-- DIS
       1     329.89653528     327.35253445       7.771E-03      0.00    <-- DIS
       2     327.77371878     326.49015313       3.931E-03      0.20    <-- DIS
       3     326.84322463     325.85183370       3.042E-03      0.39    <-- DIS
       4     326.11602752     325.35223808       2.348E-03      0.59    <-- DIS
       5     325.54396267     324.95109610       1.824E-03      0.78    <-- DIS
       6     325.08850722     324.62287402       1.434E-03      0.98    <-- DIS
       7     324.72072541     324.35025513       1.142E-03      1.18    <-- DIS
       8     324.41948178     324.12104311       9.208E-04      1.37    <-- DIS
       9     324.16945044     323.92638133       7.504E-04      1.57    <-- DIS
      10     323.95946843     323.75966723       6.171E-04      1.77    <-- DIS
      11     323.78131206     323.61586567       5.112E-04      1.96    <-- DIS
      12     323.62883003     323.49106095       4.259E-04      2.16    <-- DIS
      13     323.49734260     323.38215620       3.562E-04      2.35    <-- DIS
      14     323.38322773     323.28666650       2.987E-04      2.55    <-- DIS
      15     323.28363554     323.20257304       2.508E-04      2.74    <-- DIS
      16     323.19628953     323.12821805       2.107E-04      2.94    <-- DIS
      17     323.11934654     323.06222772       1.768E-04      3.14    <-- DIS
      18     323.05129650     323.00345447       1.481E-04      3.33    <-- DIS
      19     322.99088958     322.95093308       1.237E-04      3.53    <-- DIS
      20     322.93708219     322.90384684       1.029E-04      3.73    <-- DIS
      21     322.88899641     322.86150110       8.516E-05      3.92    <-- DIS
      22     322.84588889     322.82330223       6.997E-05      4.12    <-- DIS
      23     322.80712674     322.78874091       5.696E-05      4.31    <-- DIS
      24     322.77216851     322.75737852       4.582E-05      4.51    <-- DIS
      25     322.74054900     322.72883607       3.629E-05      4.70    <-- DIS
      26     322.71186710     322.70278513       2.814E-05      4.90    <-- DIS
      27     322.68577575     322.67894031       2.118E-05      5.10    <-- DIS
      28     322.66197382     322.65705297       1.525E-05      5.29    <-- DIS
      29     322.64019932     322.63690598       1.021E-05      5.49    <-- DIS
      30     322.62022374     322.61830934       5.934E-06      5.68    <-- DIS
      31     322.60184733     322.60109639       2.328E-06      5.88    <-- DIS
      32     322.58489509     322.58512071      -6.994E-07      6.08    <-- DIS
      33     322.56921345     322.57025336      -3.224E-06      6.27    <-- DIS
      34     322.55466733     322.55638064      -5.312E-06      6.47    <-- DIS
      35     322.54113774     322.54340209      -7.020E-06      6.66    <-- DIS
      36     322.52851966     322.53122876      -8.400E-06      6.86    <-- DIS
      37     322.51672028     322.51978183      -9.493E-06      7.05    <-- DIS
      38     322.50565739     322.50899128      -1.034E-05      7.25    <-- DIS
      39     322.49525812     322.49879485      -1.097E-05      7.44    <-- DIS
      40     322.48545772     322.48913704      -1.141E-05      7.64    <-- DIS
      41     322.47619862     322.47996837      -1.169E-05      7.84    <-- DIS
      42     322.46742950     322.47124460      -1.183E-05      8.03    <-- DIS
      43     322.45910460     322.46292615      -1.185E-05      8.23    <-- DIS
      44     322.45118304     322.45497752      -1.177E-05      8.42    <-- DIS
      45     322.44362823     322.44736687      -1.159E-05      8.62    <-- DIS
      46     322.43640740     322.44006557      -1.135E-05      8.81    <-- DIS
      47     322.42949112     322.43304785      -1.103E-05      9.01    <-- DIS
      48     322.42285300     322.42629046      -1.066E-05      9.21    <-- DIS
      49     322.41646926     322.41977245      -1.025E-05      9.40    <-- DIS
      50     322.41031849     322.41347484      -9.790E-06      9.60    <-- DIS
      51     322.40438138     322.40738048      -9.302E-06      9.79    <-- DIS
      52     322.39864051     322.40147382      -8.788E-06      9.99    <-- DIS
      53     322.39308010     322.39574074      -8.253E-06     10.18    <-- DIS
      54     322.38768589     322.39016844      -7.700E-06     10.38    <-- DIS
      55     322.38244495     322.38474524      -7.135E-06     10.57    <-- DIS
      56     322.37734554     322.37946053      -6.561E-06     10.77    <-- DIS
      57     322.37237701     322.37430463      -5.979E-06     10.96    <-- DIS
      58     322.36752966     322.36926870      -5.395E-06     11.16    <-- DIS
      59     322.36279468     322.36434468      -4.808E-06     11.36    <-- DIS
      60     322.35816404     322.35952517      -4.222E-06     11.55    <-- DIS
      61     322.35363040     322.35480342      -3.639E-06     11.75    <-- DIS
      62     322.34918709     322.35017325      -3.059E-06     11.94    <-- DIS
      63     322.34482798     322.34562897      -2.485E-06     12.14    <-- DIS
      64     322.34054749     322.34116536      -1.917E-06     12.33    <-- DIS
      65     322.33634051     322.33677764      -1.356E-06     12.53    <-- DIS
      66     322.33220235     322.33246140      -8.037E-07     12.73    <-- DIS
      67     322.32812873     322.32821260      -2.602E-07     12.92    <-- DIS
      68     322.32411570     322.32402749       2.737E-07     13.12    <-- DIS
      69     322.32015966     322.31990263       7.974E-07     13.32    <-- DIS
      70     322.31625727     322.31583485       1.311E-06     13.51    <-- DIS
      71     322.31240548     322.31182123       1.813E-06     13.71    <-- DIS
      72     322.30860150     322.30785903       2.304E-06     13.90    <-- DIS
      73     322.30484272     322.30394578       2.783E-06     14.10    <-- DIS
      74     322.30112677     322.30007913       3.250E-06     14.29    <-- DIS
      75     322.29745144     322.29625695       3.706E-06     14.49    <-- DIS
      76     322.29381472     322.29247724       4.150E-06     14.68    <-- DIS
      77     322.29021472     322.28873815       4.582E-06     14.88    <-- DIS
      78     322.28664972     322.28503797       5.001E-06     15.07    <-- DIS
      79     322.28311810     322.28137508       5.408E-06     15.27    <-- DIS
      80     322.27961838     322.27774801       5.804E-06     15.47    <-- DIS
      81     322.27614919     322.27415537       6.187E-06     15.66    <-- DIS
      82     322.27270924     322.27059585       6.558E-06     15.86    <-- DIS
      83     322.26929735     322.26706824       6.917E-06     16.05    <-- DIS
      84     322.26591239     322.26357140       7.264E-06     16.25    <-- DIS
      85     322.26255334     322.26010428       7.600E-06     16.44    <-- DIS
      86     322.25921922     322.25666585       7.923E-06     16.64    <-- DIS
      87     322.25590914     322.25325518       8.236E-06     16.84    <-- DIS
      88     322.25262223     322.24987136       8.536E-06     17.04    <-- DIS
      89     322.24935769     322.24651356       8.826E-06     17.23    <-- DIS
      90     322.24611478     322.24318098       9.104E-06     17.43    <-- DIS
      91     322.24289276     322.23987283       9.372E-06     17.62    <-- DIS
      92     322.23969097     322.23658840       9.628E-06     17.82    <-- DIS
      93     322.23650875     322.23332698       9.874E-06     18.02    <-- DIS
      94     322.23334549     322.23008791       1.011E-05     18.21    <-- DIS
      95     322.23020059     322.22687054       1.033E-05     18.41    <-- DIS
      96     322.22707349     322.22367424       1.055E-05     18.60    <-- DIS
      97     322.22396363     322.22049840       1.075E-05     18.80    <-- DIS
      98     322.22087049     322.21734245       1.095E-05     18.99    <-- DIS
      99     322.21779354     322.21420580       1.113E-05     19.19    <-- DIS
     100     322.21473228     322.21108789       1.131E-05     19.38    <-- DIS
     101     322.21168621     322.20798817       1.148E-05     19.58    <-- DIS
     102     322.20865485     322.20490610       1.163E-05     19.78    <-- DIS
     103     322.20563773     322.20184115       1.178E-05     19.97    <-- DIS
     104     322.20263435     322.19879278       1.192E-05     20.17    <-- DIS
     105     322.19964427     322.19576046       1.205E-05     20.36    <-- DIS
     106     322.19666700     322.19274367       1.218E-05     20.56    <-- DIS
     107     322.19370208     322.18974189       1.229E-05     20.75    <-- DIS
     108     322.19074904     322.18675460       1.240E-05     20.95    <-- DIS
     109     322.18780742     322.18378128       1.250E-05     21.14    <-- DIS
     110     322.18487675     322.18082139       1.259E-05     21.34    <-- DIS
     111     322.18195655     322.17787442       1.267E-05     21.53    <-- DIS
     112     322.17904634     322.17493984       1.275E-05     21.73    <-- DIS
     113     322.17614566     322.17201710       1.281E-05     21.93    <-- DIS
     114     322.17325400     322.16910569       1.288E-05     22.12    <-- DIS
     115     322.17037089     322.16620505       1.293E-05     22.32    <-- DIS
     116     322.16749582     322.16331463       1.298E-05     22.51    <-- DIS
     117     322.16462829     322.16043390       1.302E-05     22.71    <-- DIS
     118     322.16176780     322.15756227       1.305E-05     22.91    <-- DIS
     119     322.15891382     322.15469920       1.308E-05     23.10    <-- DIS
     120     322.15606582     322.15184411       1.310E-05     23.30    <-- DIS
     121     322.15322329     322.14899643       1.312E-05     23.49    <-- DIS
     122     322.15038568     322.14615556       1.313E-05     23.69    <-- DIS
     123     322.14755244     322.14332092       1.314E-05     23.88    <-- DIS
     124     322.14472302     322.14049190       1.313E-05     24.08    <-- DIS
     125     322.14189685     322.13766791       1.313E-05     24.27    <-- DIS
     126     322.13907337     322.13484833       1.312E-05     24.47    <-- DIS
     127     322.13625199     322.13203253       1.310E-05     24.66    <-- DIS
     128     322.13343214     322.12921990       1.308E-05     24.86    <-- DIS
     129     322.13061321     322.12640979       1.305E-05     25.06    <-- DIS
     130     322.12779460     322.12360157       1.302E-05     25.25    <-- DIS
     131     322.12497571     322.12079459       1.298E-05     25.45    <-- DIS
     132     322.12215592     322.11798820       1.294E-05     25.64    <-- DIS
     133     322.11933460     322.11518173       1.289E-05     25.84    <-- DIS
     134     322.11651113     322.11237451       1.284E-05     26.03    <-- DIS
     135     322.11368487     322.10956588       1.279E-05     26.23    <-- DIS
     136     322.11085518     322.10675515       1.273E-05     26.42    <-- DIS
     137     322.10802140     322.10394165       1.267E-05     26.62    <-- DIS
     138     322.10518289     322.10112467       1.260E-05     26.81    <-- DIS
     139     322.10233898     322.09830354       1.253E-05     27.01    <-- DIS
     140     322.09948901     322.09547754       1.245E-05     27.20    <-- DIS
     141     322.09663231     322.09264598       1.238E-05     27.40    <-- DIS
     142     322.09376820     322.08980816       1.229E-05     27.60    <-- DIS
     143     322.09089602     322.08696335       1.221E-05     27.79    <-- DIS
     144     322.08801508     322.08411086       1.212E-05     27.99    <-- DIS
     145     322.08512470     322.08124996       1.203E-05     28.18    <-- DIS
     146     322.08222420     322.07837994       1.194E-05     28.38    <-- DIS
     147     322.07931289     322.07550009       1.184E-05     28.57    <-- DIS
     148     322.07639009     322.07260968       1.174E-05     28.77    <-- DIS
     149     322.07345511     322.06970800       1.163E-05     28.96    <-- DIS
     150     322.07050727     322.06679434       1.153E-05     29.16    <-- DIS
     151     322.06754589     322.06386798       1.142E-05     29.36    <-- DIS
     152     322.06457028     322.06092820       1.131E-05     29.55    <-- DIS
     153     322.06157977     322.05797430       1.120E-05     29.75    <-- DIS
     154     322.05857368     322.05500557       1.108E-05     29.94    <-- DIS
     155     322.05555135     322.05202131       1.096E-05     30.14    <-- DIS
     156     322.05251212     322.04902083       1.084E-05     30.33    <-- DIS
     157     322.04945533     322.04600344       1.072E-05     30.53    <-- DIS
     158     322.04638032     322.04296846       1.059E-05     30.73    <-- DIS
     159     322.04328647     322.03991522       1.047E-05     30.92    <-- DIS
     160     322.04017315     322.03684305       1.034E-05     31.12    <-- DIS
     161     322.03703974     322.03375131       1.021E-05     31.31    <-- DIS
     162     322.03388563     322.03063936       1.008E-05     31.51    <-- DIS
     163     322.03071024     322.02750658       9.948E-06     31.70    <-- DIS
     164     322.02751299     322.02435235       9.815E-06     31.90    <-- DIS
     165     322.02429333     322.02117609       9.680E-06     32.09    <-- DIS
     166     322.02105072     322.01797722       9.544E-06     32.29    <-- DIS
     167     322.01778463     322.01475518       9.408E-06     32.48    <-- DIS
     168     322.01449457     322.01150946       9.270E-06     32.68    <-- DIS
     169     322.01118006     322.00823952       9.132E-06     32.88    <-- DIS
     170     322.00784065     322.00494489       8.993E-06     33.07    <-- DIS
     171     322.00447593     322.00162511       8.853E-06     33.27    <-- DIS
     172     322.00108549     321.99827975       8.714E-06     33.46    <-- DIS
     173     321.99766897     321.99490840       8.573E-06     33.66    <-- DIS
     174     321.99422603     321.99151069       8.433E-06     33.85    <-- DIS
     175     321.99075637     321.98808629       8.292E-06     34.05    <-- DIS
     176     321.98725972     321.98463489       8.152E-06     34.24    <-- DIS
     177     321.98373587     321.98115622       8.012E-06     34.44    <-- DIS
     178     321.98018461     321.97765007       7.872E-06     34.63    <-- DIS
     179     321.97660580     321.97411625       7.732E-06     34.83    <-- DIS
     180     321.97299933     321.97055461       7.593E-06     35.02    <-- DIS
     181     321.96936515     321.96696507       7.454E-06     35.22    <-- DIS
     182     321.96570323     321.96334756       7.317E-06     35.42    <-- DIS
     183     321.96201361     321.95970208       7.180E-06     35.61    <-- DIS
     184     321.95829638     321.95602870       7.043E-06     35.81    <-- DIS
     185     321.95455166     321.95232750       6.908E-06     36.00    <-- DIS
     186     321.95077966     321.94859865       6.774E-06     36.20    <-- DIS
     187     321.94698060     321.94484234       6.642E-06     36.39    <-- DIS
     188     321.94315480     321.94105886       6.510E-06     36.59    <-- DIS
     189     321.93930261     321.93724853       6.380E-06     36.78    <-- DIS
     190     321.93542444     321.93341173       6.252E-06     36.98    <-- DIS
     191     321.93152078     321.92954891       6.125E-06     37.17    <-- DIS
     192     321.92759216     321.92566059       6.000E-06     37.37    <-- DIS
     193     321.92363919     321.92174732       5.877E-06     37.57    <-- DIS
     194     321.91966252     321.91780976       5.755E-06     37.77    <-- DIS
     195     321.91566289     321.91384860       5.636E-06     37.96    <-- DIS
     196     321.91164108     321.90986460       5.519E-06     38.16    <-- DIS
     197     321.90759795     321.90585860       5.403E-06     38.35    <-- DIS
     198     321.90353442     321.90183149       5.290E-06     38.55    <-- DIS
     199     321.89945147     321.89778424       5.179E-06     38.74    <-- DIS
     200     321.89535014     321.89371786       5.071E-06     38.94    <-- DIS
     201     321.89123155     321.88963346       4.965E-06     39.13    <-- DIS
     202     321.88709685     321.88553217       4.861E-06     39.33    <-- DIS
     203     321.88294729     321.88141521       4.760E-06     39.52    <-- DIS
     204     321.87878415     321.87728385       4.661E-06     39.72    <-- DIS
     205     321.87460877     321.87313943       4.565E-06     39.91    <-- DIS
     206     321.87042256     321.86898334       4.471E-06     40.11    <-- DIS
     207     321.86622697     321.86481702       4.381E-06     40.31    <-- DIS
     208     321.86202350     321.86064196       4.292E-06     40.50    <-- DIS
     209     321.85781371     321.85645971       4.207E-06     40.70    <-- DIS
     210     321.85359920     321.85227185       4.124E-06     40.89    <-- DIS
     211     321.84938161     321.84808004       4.044E-06     41.09    <-- DIS
     212     321.84516261     321.84388593       3.967E-06     41.28    <-- DIS
     213     321.84094393     321.83969125       3.892E-06     41.48    <-- DIS
     214     321.83672731     321.83549774       3.820E-06     41.67    <-- DIS
     215     321.83251453     321.83130718       3.752E-06     41.87    <-- DIS
     216     321.82830738     321.82712135       3.685E-06     42.06    <-- DIS
     217     321.82410770     321.82294210       3.622E-06     42.26    <-- DIS
     218     321.81991730     321.81877125       3.561E-06     42.45    <-- DIS
     219     321.81573804     321.81461065       3.503E-06     42.65    <-- DIS
     220     321.81157178     321.81046217       3.448E-06     42.85    <-- DIS
     221     321.80742037     321.80632766       3.396E-06     43.04    <-- DIS
     222     321.80328566     321.80220899       3.346E-06     43.24    <-- DIS
     223     321.79916951     321.79810802       3.299E-06     43.43    <-- DIS
     224     321.79507375     321.79402658       3.254E-06     43.63    <-- DIS
     225     321.79100019     321.78996651       3.212E-06     43.82    <-- DIS
     226     321.78695065     321.78592962       3.173E-06     44.02    <-- DIS
     227     321.78292690     321.78191770       3.136E-06     44.21    <-- DIS
     228     321.77893068     321.77793250       3.102E-06     44.41    <-- DIS
     229     321.77496372     321.77397576       3.070E-06     44.61    <-- DIS
     230     321.77102768     321.77004916       3.041E-06     44.80    <-- DIS
     231     321.76712422     321.76615436       3.014E-06     45.00    <-- DIS
     232     321.76325491     321.76229296       2.990E-06     45.19    <-- DIS
     233     321.75942131     321.75846652       2.967E-06     45.39    <-- DIS
     234     321.75562491     321.75467655       2.947E-06     45.58    <-- DIS
     235     321.75186714     321.75092450       2.930E-06     45.78    <-- DIS
     236     321.74814940     321.74721177       2.914E-06     45.98    <-- DIS
     237     321.74447299     321.74353970       2.901E-06     46.17    <-- DIS
     238     321.74083919     321.73990956       2.889E-06     46.37    <-- DIS
     239     321.73724918     321.73632257       2.880E-06     46.56    <-- DIS
     240     321.73370408     321.73277986       2.873E-06     46.76    <-- DIS
     241     321.73020498     321.72928251       2.867E-06     46.95    <-- DIS
     242     321.72675284     321.72583153       2.864E-06     47.15    <-- DIS
     243     321.72334859     321.72242787       2.862E-06     47.35    <-- DIS
     244     321.71999309     321.71907237       2.862E-06     47.54    <-- DIS
     245     321.71668710     321.71576584       2.864E-06     47.74    <-- DIS
     246     321.71343132     321.71250900       2.867E-06     47.94    <-- DIS
     247     321.71022641     321.70930250       2.872E-06     48.13    <-- DIS
     248     321.70707290     321.70614691       2.878E-06     48.33    <-- DIS
     249     321.70397129     321.70304273       2.886E-06     48.52    <-- DIS
     250     321.70092199     321.69999041       2.896E-06     48.72    <-- DIS
     251     321.69792535     321.69699031       2.907E-06     48.91    <-- DIS
     252     321.69498165     321.69404271       2.919E-06     49.11    <-- DIS
     253     321.69209110     321.69114785       2.932E-06     49.31    <-- DIS
     254     321.68925383     321.68830588       2.947E-06     49.50    <-- DIS
     255     321.68646992     321.68551690       2.963E-06     49.70    <-- DIS
     256     321.68373939     321.68278094       2.979E-06     49.89    <-- DIS
     257     321.68106219     321.68009797       2.997E-06     50.09    <-- DIS
     258     321.67843820     321.67746790       3.016E-06     50.28    <-- DIS
[...]
  WF centre and spread  110  (  5.158131,  1.053190,  3.470541 )     2.03744044
  WF centre and spread  111  (  5.152377,  1.046533,  3.316571 )     1.82492369
  WF centre and spread  112  (  5.159742,  1.058775,  3.316507 )     1.85882016
  WF centre and spread  113  ( -5.170601,  0.977427, -0.139335 )     2.02775978
  WF centre and spread  114  ( -5.154169,  0.964431,  0.006779 )     1.82090952
  WF centre and spread  115  ( -5.165429,  0.977075,  0.004921 )     1.81437867
  WF centre and spread  116  ( -5.156638,  1.052482,  3.469778 )     2.03361430
  WF centre and spread  117  ( -5.157863,  1.048426,  3.316140 )     1.83015697
  WF centre and spread  118  ( -5.159139,  1.059504,  3.316834 )     1.86575620
  WF centre and spread  119  ( -1.731437,  1.004253, -0.087312 )     2.02385157
  WF centre and spread  120  ( -1.726201,  0.991417,  0.064269 )     1.82654925
  WF centre and spread  121  ( -1.728463,  1.003466,  0.057006 )     1.80597931
  WF centre and spread  122  ( -1.722902,  0.974068,  3.488090 )     2.04676532
  WF centre and spread  123  ( -1.725251,  0.977657,  3.336489 )     1.82144811
  WF centre and spread  124  ( -1.726020,  0.990582,  3.345965 )     1.85493355
  WF centre and spread  125  ( -3.424457,  4.008870, -0.128062 )     2.06597658
  WF centre and spread  126  ( -3.422109,  3.982055,  0.012303 )     1.83024096
  WF centre and spread  127  ( -3.421561,  4.007009,  0.027525 )     1.96486218
  WF centre and spread  128  ( -3.514743,  3.963403,  3.466469 )     2.05993164
  WF centre and spread  129  ( -3.483111,  3.944572,  3.323833 )     1.85829908
  WF centre and spread  130  ( -3.503784,  3.981817,  3.330086 )     1.86083268
  WF centre and spread  131  (  1.746890, -4.975693, -0.117537 )     2.06326830
  WF centre and spread  132  (  1.735910, -4.973476,  0.024861 )     1.87287093
  WF centre and spread  133  (  1.747880, -4.935402,  0.025493 )     1.86888117
  WF centre and spread  134  (  1.148944, -4.692678,  4.226675 )     2.68340164
  WF centre and spread  135  (  2.169804, -4.717454,  3.588958 )     1.64585418
  WF centre and spread  136  (  1.774446, -5.388504,  3.521489 )     1.57198986
  WF centre and spread  137  ( -0.000489, -2.000533, -0.067960 )     2.04556921
  WF centre and spread  138  (  0.000191, -2.012974,  0.063486 )     1.83173416
  WF centre and spread  139  ( -0.000020, -1.985397,  0.068649 )     1.81092288
  WF centre and spread  140  (  0.043657, -2.349794,  3.615907 )     2.68264558
  WF centre and spread  141  ( -0.039955, -2.005572,  3.380671 )     1.81533956
  WF centre and spread  142  (  0.007703, -1.873505,  3.484114 )     1.86510792
  WF centre and spread  143  ( -3.489234, -2.014797, -0.013951 )     2.02862898
  WF centre and spread  144  ( -3.491626, -2.030099,  0.120200 )     1.82673053
  WF centre and spread  145  ( -3.490877, -2.005248,  0.124544 )     1.81918537
  WF centre and spread  146  ( -3.384979, -2.282095,  3.644858 )     2.55437169
  WF centre and spread  147  ( -3.373087, -1.965303,  3.434893 )     1.78209765
  WF centre and spread  148  ( -3.399439, -1.845359,  3.540969 )     1.86543786
  WF centre and spread  149  (  0.000321,  9.880988,  0.085306 )     2.10819092
  WF centre and spread  150  ( -0.005390,  9.884180,  0.195580 )     1.88255430
  WF centre and spread  151  (  0.000386,  9.918006,  0.186148 )     1.83154119
  WF centre and spread  152  (  0.007352, 10.261419,  3.638619 )     1.96173448
  WF centre and spread  153  ( -0.013357, 10.198318,  3.542102 )     1.79325766
  WF centre and spread  154  ( -0.007785, 10.071573,  3.513099 )     2.18373494
  WF centre and spread  155  (  3.486560, -2.025310, -0.001037 )     2.06866874
  WF centre and spread  156  (  3.485681, -2.037324,  0.129548 )     1.86665221
  WF centre and spread  157  (  3.489268, -2.004225,  0.126850 )     1.81917003
  WF centre and spread  158  (  3.414785, -2.320624,  3.670513 )     2.61961616
  WF centre and spread  159  (  3.376946, -1.980506,  3.443653 )     1.80307054
  WF centre and spread  160  (  3.355699, -1.852662,  3.548809 )     1.88177117
  WF centre and spread  161  (  0.000876, -7.947633, -0.197130 )     2.03718739
  WF centre and spread  162  (  0.000724, -7.965166, -0.058010 )     1.82925402
  WF centre and spread  163  (  0.000395, -7.941938, -0.053217 )     1.89806968
  WF centre and spread  164  ( -0.004206, -7.942829,  3.451065 )     2.05619951
  WF centre and spread  165  (  0.004026, -7.954932,  3.307779 )     1.83917403
  WF centre and spread  166  ( -0.003906, -7.894015,  3.309799 )     1.88923956
  WF centre and spread  167  ( -1.739362, -4.977253, -0.119067 )     2.04659644
  WF centre and spread  168  ( -1.740355, -4.973332,  0.019339 )     1.83319764
  WF centre and spread  169  ( -1.740047, -4.932898,  0.019019 )     1.84875736
  WF centre and spread  170  ( -1.617342, -4.977494,  3.226106 )     2.22289996
  WF centre and spread  171  ( -2.190449, -4.724580,  3.833927 )     2.00344705
  WF centre and spread  172  ( -1.665028, -5.201583,  3.424035 )     1.77477030
  WF centre and spread  173  (  1.677571,  6.982082,  0.064970 )     2.03808605
  WF centre and spread  174  (  1.685087,  6.973466,  0.186062 )     1.81954626
  WF centre and spread  175  (  1.686930,  7.002178,  0.186422 )     1.83712292
  WF centre and spread  176  (  2.268798,  7.039711,  3.935564 )     2.40932336
  WF centre and spread  177  (  1.460027,  7.117875,  3.555352 )     1.55663742
  WF centre and spread  178  (  1.825583,  6.422146,  3.776071 )     1.49884425
  WF centre and spread  179  (  3.429365,  4.001196, -0.132834 )     2.03552478
  WF centre and spread  180  (  3.422626,  3.979549,  0.008825 )     1.82925518
  WF centre and spread  181  (  3.422247,  3.997417,  0.013396 )     1.87724377
  WF centre and spread  182  (  3.505457,  3.949962,  3.472532 )     2.04732011
  WF centre and spread  183  (  3.489184,  3.940197,  3.318003 )     1.84306969
  WF centre and spread  184  (  3.503185,  3.997152,  3.328738 )     1.87105717
  WF centre and spread  185  (  0.000232,  4.043924, -0.028305 )     2.01353455
  WF centre and spread  186  (  0.000226,  4.025089,  0.121138 )     1.81601074
  WF centre and spread  187  (  0.000523,  4.052346,  0.119170 )     1.84556659
  WF centre and spread  188  ( -0.001703,  3.936771,  3.554273 )     2.04999472
  WF centre and spread  189  ( -0.000305,  3.917809,  3.404582 )     1.84161512
  WF centre and spread  190  (  0.000842,  3.994629,  3.407385 )     1.86199729
  WF centre and spread  191  ( -1.681027,  6.978861,  0.062181 )     2.04721726
  WF centre and spread  192  ( -1.697952,  6.971942,  0.190919 )     1.82773453
  WF centre and spread  193  ( -1.690452,  7.001952,  0.186562 )     1.83621186
  WF centre and spread  194  ( -2.395667,  7.058327,  4.117722 )     2.47177716
  WF centre and spread  195  ( -0.073826,  7.809455,  5.090107 )     2.55605423
  WF centre and spread  196  ( -1.893228,  6.525108,  3.689186 )     1.70164060
  Sum of centres and spreads (  2.992942,-43.808662,388.631624 )   352.14589872
 
         Spreads (Ang^2)       Omega I      =   321.510937232
        ================       Omega D      =     0.009154775
                               Omega OD     =    30.625806934
    Final Spread (Ang^2)       Omega Total  =   352.145898940
 ------------------------------------------------------------------------------
 Final centres (translated to home cell for writing xyz file)
  WF centre    1  ( -0.010479,  7.949674,  3.842478 )
  WF centre    2  (  0.022486,  7.953920,  3.996855 )
  WF centre    3  (  0.001970,  7.992033,  3.990019 )
  WF centre    4  (  0.027478,  7.877985,  3.907601 )
  WF centre    5  ( -0.061364,  8.011544,  3.912987 )
  WF centre    6  ( -3.499547, -3.958768,  4.057107 )
  WF centre    7  ( -3.598783, -4.068382,  3.928232 )
  WF centre    8  ( -3.481796, -3.981311,  3.958450 )
  WF centre    9  ( -3.403783, -4.032282,  3.910536 )
  WF centre   10  ( -3.653492, -3.945291,  3.902535 )
  WF centre   11  (  0.247399, -3.986731,  3.943016 )
  WF centre   12  (  0.072327, -4.023998,  3.993996 )
  WF centre   13  (  0.397490, -4.060918,  3.782510 )
  WF centre   14  (  0.269153, -3.979600,  3.996892 )
  WF centre   15  (  0.229180, -3.941404,  3.864275 )
  WF centre   16  (  3.704547, -3.975002,  4.047019 )
  WF centre   17  (  3.639852, -4.016132,  3.956056 )
  WF centre   18  (  3.711003, -3.988989,  3.938178 )
  WF centre   19  (  3.931177, -4.192741,  3.795450 )
  WF centre   20  (  3.695159, -3.931820,  3.904997 )
  WF centre   21  ( -0.001002, -0.009205,  1.710403 )
  WF centre   22  ( -0.000800, -0.004386,  1.696506 )
  WF centre   23  (  0.006380, -0.088207,  1.779195 )
  WF centre   24  ( -0.004752,  0.106198,  1.708873 )
  WF centre   25  (  0.003525, -0.138824,  1.701865 )
  WF centre   26  (  3.434378, -0.019988,  1.724171 )
  WF centre   27  (  3.467647, -0.003126,  1.696344 )
  WF centre   28  (  3.470501, -0.071387,  1.778624 )
  WF centre   29  (  3.440466,  0.107810,  1.711540 )
  WF centre   30  (  3.549130, -0.118493,  1.717496 )
  WF centre   31  (  0.003482,-11.900955,  1.680231 )
  WF centre   32  ( -0.000057,-11.891034,  1.689460 )
  WF centre   33  ( -0.000972,-11.886670,  1.679250 )
  WF centre   34  (  0.002112,-11.756903,  1.682484 )
  WF centre   35  ( -0.009869, 11.850227,  1.687301 )
  WF centre   36  ( -3.434083, -0.019884,  1.723058 )
  WF centre   37  ( -3.468359, -0.003356,  1.697207 )
  WF centre   38  ( -3.469185, -0.085643,  1.793322 )
  WF centre   39  ( -3.440349,  0.106669,  1.714695 )
  WF centre   40  ( -3.550746, -0.118108,  1.717663 )
  WF centre   41  (  1.717315, -8.942147,  1.616870 )
  WF centre   42  (  1.686515, -8.934930,  1.625457 )
  WF centre   43  (  1.691518, -8.931933,  1.620965 )
  WF centre   44  (  1.707802, -8.791699,  1.626814 )
  WF centre   45  (  1.648963, -9.054674,  1.619778 )
  WF centre   46  ( -0.032395, -6.009726,  1.633600 )
  WF centre   47  ( -0.011117, -5.990572,  1.684277 )
  WF centre   48  ( -0.007531, -5.963745,  1.679740 )
  WF centre   49  ( -0.036574, -5.877154,  1.637164 )
  WF centre   50  (  0.098800, -6.081770,  1.643170 )
  WF centre   51  ( -1.712772, -3.019596,  1.739605 )
  WF centre   52  ( -1.731967, -3.015780,  1.719143 )
  WF centre   53  ( -1.732424, -3.017825,  1.730140 )
  WF centre   54  ( -1.666086, -2.919460,  1.736970 )
  WF centre   55  ( -1.844720, -3.121410,  1.759053 )
  WF centre   56  ( -5.149067, -2.988979,  1.896409 )
  WF centre   57  (  1.715331,  8.937760,  1.877920 )
  WF centre   58  (  1.732558,  8.938326,  1.904442 )
  WF centre   59  ( -5.097048, -2.896587,  1.907935 )
  WF centre   60  (  1.636768,  8.817572,  1.957124 )
  WF centre   61  (  5.141669, -2.998023,  1.896635 )
  WF centre   62  ( -1.716910,  8.933854,  1.868846 )
  WF centre   63  ( -1.734868,  8.935985,  1.925441 )
  WF centre   64  (  5.125059, -2.892699,  1.893806 )
  WF centre   65  ( -1.653410,  8.798600,  1.987379 )
  WF centre   66  (  1.708391, -3.019518,  1.733757 )
  WF centre   67  (  1.730893, -3.019472,  1.718470 )
  WF centre   68  (  1.730806, -3.017943,  1.726930 )
  WF centre   69  (  1.689043, -2.915810,  1.763600 )
  WF centre   70  (  1.829880, -3.156215,  1.776996 )
  WF centre   71  ( -1.717107, -8.942786,  1.616016 )
  WF centre   72  ( -1.691050, -8.936473,  1.621429 )
  WF centre   73  ( -1.690794, -8.932952,  1.620553 )
  WF centre   74  ( -1.707823, -8.790229,  1.627540 )
  WF centre   75  ( -1.649324, -9.055501,  1.620439 )
  WF centre   76  ( -3.387771, -5.994012,  1.697315 )
  WF centre   77  ( -3.382734, -5.993259,  1.703036 )
  WF centre   78  ( -3.395875, -5.969876,  1.711302 )
  WF centre   79  ( -3.357157, -5.852346,  1.707947 )
  WF centre   80  (  3.418669,  5.853040,  1.707576 )
  WF centre   81  ( -0.002533,  5.962887,  1.879633 )
  WF centre   82  ( -0.002141,  5.985671,  1.962404 )
  WF centre   83  (  0.000432,  6.047495,  1.950024 )
  WF centre   84  ( -0.002040,  6.100337,  1.895239 )
  WF centre   85  ( -0.006016,  5.880183,  1.871095 )
  WF centre   86  (  1.730694,  3.000713,  1.708374 )
  WF centre   87  (  1.740184,  3.004866,  1.709766 )
  WF centre   88  (  1.737807,  3.003757,  1.706243 )
  WF centre   89  (  1.732310,  3.148335,  1.712394 )
  WF centre   90  (  1.753812,  2.879787,  1.704313 )
  WF centre   91  ( -1.730208,  3.001848,  1.708427 )
  WF centre   92  ( -1.741584,  3.006516,  1.711736 )
  WF centre   93  ( -1.739511,  3.005077,  1.708759 )
  WF centre   94  ( -1.732654,  3.146290,  1.711719 )
  WF centre   95  ( -1.755980,  2.882311,  1.703890 )
  WF centre   96  (  3.398180, -5.990080,  1.702519 )
  WF centre   97  (  3.389009, -5.972532,  1.785715 )
  WF centre   98  (  3.392106, -5.967458,  1.701894 )
  WF centre   99  (  3.395849, -5.851066,  1.715042 )
  WF centre  100  ( -3.474930,  5.844522,  1.689222 )
  WF centre  101  (  1.732709,  1.004044, -0.086156 )
  WF centre  102  (  1.727281,  0.990056,  0.062267 )
  WF centre  103  (  1.727797,  1.001069,  0.057743 )
  WF centre  104  (  1.723258,  0.977212,  3.490246 )
  WF centre  105  (  1.722356,  0.976989,  3.335979 )
  WF centre  106  (  1.725740,  0.986585,  3.344658 )
  WF centre  107  (  5.170188,  0.976962, -0.136983 )
  WF centre  108  (  5.152982,  0.965207,  0.007135 )
  WF centre  109  (  5.165361,  0.974744,  0.005285 )
  WF centre  110  (  5.158131,  1.053190,  3.470541 )
  WF centre  111  (  5.152377,  1.046533,  3.316571 )
  WF centre  112  (  5.159742,  1.058775,  3.316507 )
  WF centre  113  ( -5.170601,  0.977427, -0.139335 )
  WF centre  114  ( -5.154169,  0.964431,  0.006779 )
  WF centre  115  ( -5.165429,  0.977075,  0.004921 )
  WF centre  116  ( -5.156638,  1.052482,  3.469778 )
  WF centre  117  ( -5.157863,  1.048426,  3.316140 )
  WF centre  118  ( -5.159139,  1.059504,  3.316834 )
  WF centre  119  ( -1.731437,  1.004253, -0.087312 )
  WF centre  120  ( -1.726201,  0.991417,  0.064269 )
  WF centre  121  ( -1.728463,  1.003466,  0.057006 )
  WF centre  122  ( -1.722902,  0.974068,  3.488090 )
  WF centre  123  ( -1.725251,  0.977657,  3.336489 )
  WF centre  124  ( -1.726020,  0.990582,  3.345965 )
  WF centre  125  ( -3.424457,  4.008870, -0.128062 )
  WF centre  126  ( -3.422109,  3.982055,  0.012303 )
  WF centre  127  ( -3.421561,  4.007009,  0.027525 )
  WF centre  128  ( -3.514743,  3.963403,  3.466469 )
  WF centre  129  ( -3.483111,  3.944572,  3.323833 )
  WF centre  130  ( -3.503784,  3.981817,  3.330086 )
  WF centre  131  (  1.746890, -4.975693, -0.117537 )
  WF centre  132  (  1.735910, -4.973476,  0.024861 )
  WF centre  133  (  1.747880, -4.935402,  0.025493 )
  WF centre  134  (  1.148944, -4.692678,  4.226675 )
  WF centre  135  (  2.169804, -4.717454,  3.588958 )
  WF centre  136  (  1.774446, -5.388504,  3.521489 )
  WF centre  137  ( -0.000489, -2.000533, -0.067960 )
  WF centre  138  (  0.000191, -2.012974,  0.063486 )
  WF centre  139  ( -0.000020, -1.985397,  0.068649 )
  WF centre  140  (  0.043657, -2.349794,  3.615907 )
  WF centre  141  ( -0.039955, -2.005572,  3.380671 )
  WF centre  142  (  0.007703, -1.873505,  3.484114 )
  WF centre  143  ( -3.489234, -2.014797, -0.013951 )
  WF centre  144  ( -3.491626, -2.030099,  0.120200 )
  WF centre  145  ( -3.490877, -2.005248,  0.124544 )
  WF centre  146  ( -3.384979, -2.282095,  3.644858 )
  WF centre  147  ( -3.373087, -1.965303,  3.434893 )
  WF centre  148  ( -3.399439, -1.845359,  3.540969 )
  WF centre  149  (  0.000321,  9.880988,  0.085306 )
  WF centre  150  ( -0.005390,  9.884180,  0.195580 )
  WF centre  151  (  0.000386,  9.918006,  0.186148 )
  WF centre  152  (  0.007352, 10.261419,  3.638619 )
  WF centre  153  ( -0.013357, 10.198318,  3.542102 )
  WF centre  154  ( -0.007785, 10.071573,  3.513099 )
  WF centre  155  (  3.486560, -2.025310, -0.001037 )
  WF centre  156  (  3.485681, -2.037324,  0.129548 )
  WF centre  157  (  3.489268, -2.004225,  0.126850 )
  WF centre  158  (  3.414785, -2.320624,  3.670513 )
  WF centre  159  (  3.376946, -1.980506,  3.443653 )
  WF centre  160  (  3.355699, -1.852662,  3.548809 )
  WF centre  161  (  0.000876, -7.947633, -0.197130 )
  WF centre  162  (  0.000724, -7.965166, -0.058010 )
  WF centre  163  (  0.000395, -7.941938, -0.053217 )
  WF centre  164  ( -0.004206, -7.942829,  3.451065 )
  WF centre  165  (  0.004026, -7.954932,  3.307779 )
  WF centre  166  ( -0.003906, -7.894015,  3.309799 )
  WF centre  167  ( -1.739362, -4.977253, -0.119067 )
  WF centre  168  ( -1.740355, -4.973332,  0.019339 )
  WF centre  169  ( -1.740047, -4.932898,  0.019019 )
  WF centre  170  ( -1.617342, -4.977494,  3.226106 )
  WF centre  171  ( -2.190449, -4.724580,  3.833927 )
  WF centre  172  ( -1.665028, -5.201583,  3.424035 )
  WF centre  173  (  1.677571,  6.982082,  0.064970 )
  WF centre  174  (  1.685087,  6.973466,  0.186062 )
  WF centre  175  (  1.686930,  7.002178,  0.186422 )
  WF centre  176  (  2.268798,  7.039711,  3.935564 )
  WF centre  177  (  1.460027,  7.117875,  3.555352 )
  WF centre  178  (  1.825583,  6.422146,  3.776071 )
  WF centre  179  (  3.429365,  4.001196, -0.132834 )
  WF centre  180  (  3.422626,  3.979549,  0.008825 )
  WF centre  181  (  3.422247,  3.997417,  0.013396 )
  WF centre  182  (  3.505457,  3.949962,  3.472532 )
  WF centre  183  (  3.489184,  3.940197,  3.318003 )
  WF centre  184  (  3.503185,  3.997152,  3.328738 )
  WF centre  185  (  0.000232,  4.043924, -0.028305 )
  WF centre  186  (  0.000226,  4.025089,  0.121138 )
  WF centre  187  (  0.000523,  4.052346,  0.119170 )
  WF centre  188  ( -0.001703,  3.936771,  3.554273 )
  WF centre  189  ( -0.000305,  3.917809,  3.404582 )
  WF centre  190  (  0.000842,  3.994629,  3.407385 )
  WF centre  191  ( -1.681027,  6.978861,  0.062181 )
  WF centre  192  ( -1.697952,  6.971942,  0.190919 )
  WF centre  193  ( -1.690452,  7.001952,  0.186562 )
  WF centre  194  ( -2.395667,  7.058327,  4.117722 )
  WF centre  195  ( -0.073826,  7.809455,  5.090107 )
  WF centre  196  ( -1.893228,  6.525108,  3.689186 )
 ------------------------------------------------------------------------------
 

 Wannier centres written to file infcr.up_centres.xyz
  
  Omega Invariant:   1-s^2 =   321.510937232 (Ang^2)
                   -2log s =   364.873623604 (Ang^2)
                    acos^2 =   348.598014186 (Ang^2)
 Time for wannierise           40.108 (sec)

 Writing checkpoint file infcr.up.chk... done

 *---------------------------------------------------------------------------*
 |                               PLOTTING                                    |
 *---------------------------------------------------------------------------*
 
    1 lattice points in Wigner-Seitz supercell:

      vector   0   0   0   degeneracy:  1
  tot =        1.000
  mp_grid product =            1
 
 Calculating interpolated band-structure
 
 Time to calculate interpolated band structure       6.201 (sec)
 
 Time for plotting              6.407 (sec)
 Total Execution Time         415.230 (sec)

 *===========================================================================*
 |                             TIMING INFORMATION                            |
 *===========================================================================*
 |    Tag                                                Ncalls      Time (s)|
 |---------------------------------------------------------------------------|
 |kmesh: get                                        :         1         0.012|
 |overlap: allocate                                 :         1         0.002|
 |overlap: read                                     :         1         4.128|
 |dis: main                                         :         1       364.546|
 |wann: main                                        :         1        40.108|
 |plot: main                                        :         1         6.407|
 *---------------------------------------------------------------------------*
 
 All done: wannier90 exiting
