 
             +---------------------------------------------------+
             |                                                   |
             |                   WANNIER90                       |
             |                                                   |
             +---------------------------------------------------+
             |                                                   |
             |        Welcome to the Maximally-Localized         |
             |        Generalized Wannier Functions code         |
             |            http://www.wannier.org                 |
             |                                                   |
             |                                                   |
             |  Wannier90 Developer Group:                       |
             |    Giovanni Pizzi    (EPFL)                       |
             |    Valerio Vitale    (Cambridge)                  |
             |    David Vanderbilt  (Rutgers University)         |
             |    Nicola Marzari    (EPFL)                       |
             |    Ivo Souza         (Universidad del Pais Vasco) |
             |    Arash A. Mostofi  (Imperial College London)    |
             |    Jonathan R. Yates (University of Oxford)       |
             |                                                   |
             |  For the full list of Wannier90 3.x authors,      |
             |  please check the code documentation and the      |
             |  README on the GitHub page of the code            |
             |                                                   |
             |                                                   |
             |  Please cite                                      |
             |                                                   |
             |  [ref] "Wannier90 as a community code:            |
             |        new features and applications",            |
             |        G. Pizzi et al., J. Phys. Cond. Matt. 32,  |
             |        165902 (2020).                             |
             |        http://doi.org/10.1088/1361-648X/ab51ff    |
             |                                                   |
             |  in any publications arising from the use of      |
             |  this code. For the method please cite            |
             |                                                   |
             |  [ref] "Maximally Localized Generalised Wannier   |
             |         Functions for Composite Energy Bands"     |
             |         N. Marzari and D. Vanderbilt              |
             |         Phys. Rev. B 56 12847 (1997)              |
             |                                                   |
             |  [ref] "Maximally Localized Wannier Functions     |
             |         for Entangled Energy Bands"               |
             |         I. Souza, N. Marzari and D. Vanderbilt    |
             |         Phys. Rev. B 65 035109 (2001)             |
             |                                                   |
             |                                                   |
             | Copyright (c) 1996-2020                           |
             |        The Wannier90 Developer Group and          |
             |        individual contributors                    |
             |                                                   |
             |      Release: 3.1.0        5th March    2020      |
             |                                                   |
             | This program is free software; you can            |
             | redistribute it and/or modify it under the terms  |
             | of the GNU General Public License as published by |
             | the Free Software Foundation; either version 2 of |
             | the License, or (at your option) any later version|
             |                                                   |
             | This program is distributed in the hope that it   |
             | will be useful, but WITHOUT ANY WARRANTY; without |
             | even the implied warranty of MERCHANTABILITY or   |
             | FITNESS FOR A PARTICULAR PURPOSE. See the GNU     |
             | General Public License for more details.          |
             |                                                   |
             | You should have received a copy of the GNU General|
             | Public License along with this program; if not,   |
             | write to the Free Software Foundation, Inc.,      |
             | 675 Mass Ave, Cambridge, MA 02139, USA.           |
             |                                                   |
             +---------------------------------------------------+
             |    Execution started on  8Nov2023 at 18:47:38     |
             +---------------------------------------------------+
 
 ******************************************************************************
 * -> Using CODATA 2006 constant values                                       *
 *    (http://physics.nist.gov/cuu/Constants/index.html)                      *
 * -> Using Bohr value from CODATA                                            *
 ******************************************************************************
 

 Running in parallel on  80 CPUs

 
                                    ------
                                    SYSTEM
                                    ------
 
                              Lattice Vectors (Ang)
                    a_1    13.784171   0.000000   0.000000
                    a_2    -6.892085  11.937442   0.000000
                    a_3     0.000000   0.000000  23.631430
 
                   Unit Cell Volume:    3888.49848  (Ang^3)
 
                        Reciprocal-Space Vectors (Ang^-1)
                    b_1     0.455826   0.263171   0.000000
                    b_2     0.000000   0.526343   0.000000
                    b_3     0.000000   0.000000   0.265883
  
 *----------------------------------------------------------------------------*
 |   Site       Fractional Coordinate          Cartesian Coordinate (Ang)     |
 +----------------------------------------------------------------------------+
 | Nb   1   0.00000   0.00000   0.07097   |    0.00000   0.00000   1.67715    |
 | Nb   2   0.25000   0.00000   0.07097   |    3.44604   0.00000   1.67715    |
 | Nb   3   0.50000   0.00000   0.07097   |    6.89209   0.00000   1.67715    |
 | Nb   4   0.75000   0.00000   0.07097   |   10.33813   0.00000   1.67715    |
 | Nb   5   0.75000   0.25000   0.07097   |    8.61511   2.98436   1.67715    |
 | Nb   6   0.75000   0.50000   0.07097   |    6.89209   5.96872   1.67715    |
 | Nb   7   0.75000   0.75000   0.07097   |    5.16906   8.95308   1.67715    |
 | Nb   8   0.50000   0.75000   0.07097   |    1.72302   8.95308   1.67715    |
 | Nb   9   0.25000   0.75000   0.07097   |   -1.72302   8.95308   1.67715    |
 | Nb  10   0.00000   0.75000   0.07097   |   -5.16906   8.95308   1.67715    |
 | Nb  11   0.50000   0.25000   0.07097   |    5.16906   2.98436   1.67715    |
 | Nb  12   0.50000   0.50000   0.07097   |    3.44604   5.96872   1.67715    |
 | Nb  13   0.25000   0.50000   0.07097   |    0.00000   5.96872   1.67715    |
 | Nb  14   0.25000   0.25000   0.07097   |    1.72302   2.98436   1.67715    |
 | Nb  15   0.00000   0.25000   0.07097   |   -1.72302   2.98436   1.67715    |
 | Nb  16   0.00000   0.50000   0.07097   |   -3.44604   5.96872   1.67715    |
 | Se   1   0.16667   0.08333   0.00000   |    1.72302   0.99479   0.00000    |
 | Se   2   0.16667   0.08333   0.14194   |    1.72302   0.99479   3.35430    |
 | Se   3   0.41667   0.08333   0.00000   |    5.16906   0.99479   0.00000    |
 | Se   4   0.41667   0.08333   0.14194   |    5.16906   0.99479   3.35430    |
 | Se   5   0.66667   0.08333   0.00000   |    8.61511   0.99479   0.00000    |
 | Se   6   0.66667   0.08333   0.14194   |    8.61511   0.99479   3.35430    |
 | Se   7   0.91667   0.08333   0.00000   |   12.06115   0.99479   0.00000    |
 | Se   8   0.91667   0.08333   0.14194   |   12.06115   0.99479   3.35430    |
 | Se   9   0.91667   0.33333   0.00000   |   10.33813   3.97915   0.00000    |
 | Se  10   0.91667   0.33333   0.14194   |   10.33813   3.97915   3.35430    |
 | Se  11   0.91667   0.58333   0.00000   |    8.61511   6.96351   0.00000    |
 | Se  12   0.91667   0.58333   0.14194   |    8.61511   6.96351   3.35430    |
 | Se  13   0.91667   0.83333   0.00000   |    6.89209   9.94787   0.00000    |
 | Se  14   0.91667   0.83333   0.14194   |    6.89209   9.94787   3.35430    |
 | Se  15   0.66667   0.83333   0.00000   |    3.44604   9.94787   0.00000    |
 | Se  16   0.66667   0.83333   0.14194   |    3.44604   9.94787   3.35430    |
 | Se  17   0.41667   0.83333   0.00000   |    0.00000   9.94787   0.00000    |
 | Se  18   0.41667   0.83333   0.14194   |    0.00000   9.94787   3.35430    |
 | Se  19   0.16667   0.83333   0.00000   |   -3.44604   9.94787   0.00000    |
 | Se  20   0.16667   0.83333   0.14194   |   -3.44604   9.94787   3.35430    |
 | Se  21   0.66667   0.33333   0.00000   |    6.89209   3.97915   0.00000    |
 | Se  22   0.66667   0.33333   0.14194   |    6.89209   3.97915   3.35430    |
 | Se  23   0.66667   0.58333   0.00000   |    5.16906   6.96351   0.00000    |
 | Se  24   0.66667   0.58333   0.14194   |    5.16906   6.96351   3.35430    |
 | Se  25   0.41667   0.58333   0.00000   |    1.72302   6.96351   0.00000    |
 | Se  26   0.41667   0.58333   0.14194   |    1.72302   6.96351   3.35430    |
 | Se  27   0.41667   0.33333   0.00000   |    3.44604   3.97915   0.00000    |
 | Se  28   0.41667   0.33333   0.14194   |    3.44604   3.97915   3.35430    |
 | Se  29   0.16667   0.33333   0.00000   |    0.00000   3.97915   0.00000    |
 | Se  30   0.16667   0.33333   0.14194   |    0.00000   3.97915   3.35430    |
 | Se  31   0.16667   0.58333   0.00000   |   -1.72302   6.96351   0.00000    |
 | Se  32   0.16667   0.58333   0.14194   |   -1.72302   6.96351   3.35430    |
 *----------------------------------------------------------------------------*
                                -----------
                                PROJECTIONS
                                -----------
  
 +----------------------------------------------------------------------------+
 |     Frac. Coord.   l mr  r        z-axis               x-axis          Z/a |
 +----------------------------------------------------------------------------+
 |  0.00  0.00  0.07  2  1  1  0.000  0.000  1.000  1.000  0.000  0.000   1.0 |
 |  0.00  0.00  0.07  2  2  1  0.000  0.000  1.000  1.000  0.000  0.000   1.0 |
 |  0.00  0.00  0.07  2  3  1  0.000  0.000  1.000  1.000  0.000  0.000   1.0 |
 |  0.00  0.00  0.07  2  4  1  0.000  0.000  1.000  1.000  0.000  0.000   1.0 |
 |  0.00  0.00  0.07  2  5  1  0.000  0.000  1.000  1.000  0.000  0.000   1.0 |
 |  0.25  0.00  0.07  2  1  1  0.000  0.000  1.000  1.000  0.000  0.000   1.0 |
 |  0.25  0.00  0.07  2  2  1  0.000  0.000  1.000  1.000  0.000  0.000   1.0 |
 |  0.25  0.00  0.07  2  3  1  0.000  0.000  1.000  1.000  0.000  0.000   1.0 |
 |  0.25  0.00  0.07  2  4  1  0.000  0.000  1.000  1.000  0.000  0.000   1.0 |
 |  0.25  0.00  0.07  2  5  1  0.000  0.000  1.000  1.000  0.000  0.000   1.0 |
 |  0.50  0.00  0.07  2  1  1  0.000  0.000  1.000  1.000  0.000  0.000   1.0 |
 |  0.50  0.00  0.07  2  2  1  0.000  0.000  1.000  1.000  0.000  0.000   1.0 |
 |  0.50  0.00  0.07  2  3  1  0.000  0.000  1.000  1.000  0.000  0.000   1.0 |
 |  0.50  0.00  0.07  2  4  1  0.000  0.000  1.000  1.000  0.000  0.000   1.0 |
 |  0.50  0.00  0.07  2  5  1  0.000  0.000  1.000  1.000  0.000  0.000   1.0 |
 |  0.75  0.00  0.07  2  1  1  0.000  0.000  1.000  1.000  0.000  0.000   1.0 |
 |  0.75  0.00  0.07  2  2  1  0.000  0.000  1.000  1.000  0.000  0.000   1.0 |
 |  0.75  0.00  0.07  2  3  1  0.000  0.000  1.000  1.000  0.000  0.000   1.0 |
 |  0.75  0.00  0.07  2  4  1  0.000  0.000  1.000  1.000  0.000  0.000   1.0 |
 |  0.75  0.00  0.07  2  5  1  0.000  0.000  1.000  1.000  0.000  0.000   1.0 |
 |  0.75  0.25  0.07  2  1  1  0.000  0.000  1.000  1.000  0.000  0.000   1.0 |
 |  0.75  0.25  0.07  2  2  1  0.000  0.000  1.000  1.000  0.000  0.000   1.0 |
 |  0.75  0.25  0.07  2  3  1  0.000  0.000  1.000  1.000  0.000  0.000   1.0 |
 |  0.75  0.25  0.07  2  4  1  0.000  0.000  1.000  1.000  0.000  0.000   1.0 |
 |  0.75  0.25  0.07  2  5  1  0.000  0.000  1.000  1.000  0.000  0.000   1.0 |
 |  0.75  0.50  0.07  2  1  1  0.000  0.000  1.000  1.000  0.000  0.000   1.0 |
 |  0.75  0.50  0.07  2  2  1  0.000  0.000  1.000  1.000  0.000  0.000   1.0 |
 |  0.75  0.50  0.07  2  3  1  0.000  0.000  1.000  1.000  0.000  0.000   1.0 |
 |  0.75  0.50  0.07  2  4  1  0.000  0.000  1.000  1.000  0.000  0.000   1.0 |
 |  0.75  0.50  0.07  2  5  1  0.000  0.000  1.000  1.000  0.000  0.000   1.0 |
 |  0.75  0.75  0.07  2  1  1  0.000  0.000  1.000  1.000  0.000  0.000   1.0 |
 |  0.75  0.75  0.07  2  2  1  0.000  0.000  1.000  1.000  0.000  0.000   1.0 |
 |  0.75  0.75  0.07  2  3  1  0.000  0.000  1.000  1.000  0.000  0.000   1.0 |
 |  0.75  0.75  0.07  2  4  1  0.000  0.000  1.000  1.000  0.000  0.000   1.0 |
 |  0.75  0.75  0.07  2  5  1  0.000  0.000  1.000  1.000  0.000  0.000   1.0 |
 |  0.50  0.75  0.07  2  1  1  0.000  0.000  1.000  1.000  0.000  0.000   1.0 |
 |  0.50  0.75  0.07  2  2  1  0.000  0.000  1.000  1.000  0.000  0.000   1.0 |
 |  0.50  0.75  0.07  2  3  1  0.000  0.000  1.000  1.000  0.000  0.000   1.0 |
 |  0.50  0.75  0.07  2  4  1  0.000  0.000  1.000  1.000  0.000  0.000   1.0 |
 |  0.50  0.75  0.07  2  5  1  0.000  0.000  1.000  1.000  0.000  0.000   1.0 |
 |  0.25  0.75  0.07  2  1  1  0.000  0.000  1.000  1.000  0.000  0.000   1.0 |
 |  0.25  0.75  0.07  2  2  1  0.000  0.000  1.000  1.000  0.000  0.000   1.0 |
 |  0.25  0.75  0.07  2  3  1  0.000  0.000  1.000  1.000  0.000  0.000   1.0 |
 |  0.25  0.75  0.07  2  4  1  0.000  0.000  1.000  1.000  0.000  0.000   1.0 |
 |  0.25  0.75  0.07  2  5  1  0.000  0.000  1.000  1.000  0.000  0.000   1.0 |
 |  0.00  0.75  0.07  2  1  1  0.000  0.000  1.000  1.000  0.000  0.000   1.0 |
 |  0.00  0.75  0.07  2  2  1  0.000  0.000  1.000  1.000  0.000  0.000   1.0 |
 |  0.00  0.75  0.07  2  3  1  0.000  0.000  1.000  1.000  0.000  0.000   1.0 |
 |  0.00  0.75  0.07  2  4  1  0.000  0.000  1.000  1.000  0.000  0.000   1.0 |
 |  0.00  0.75  0.07  2  5  1  0.000  0.000  1.000  1.000  0.000  0.000   1.0 |
 |  0.50  0.25  0.07  2  1  1  0.000  0.000  1.000  1.000  0.000  0.000   1.0 |
 |  0.50  0.25  0.07  2  2  1  0.000  0.000  1.000  1.000  0.000  0.000   1.0 |
 |  0.50  0.25  0.07  2  3  1  0.000  0.000  1.000  1.000  0.000  0.000   1.0 |
 |  0.50  0.25  0.07  2  4  1  0.000  0.000  1.000  1.000  0.000  0.000   1.0 |
 |  0.50  0.25  0.07  2  5  1  0.000  0.000  1.000  1.000  0.000  0.000   1.0 |
 |  0.50  0.50  0.07  2  1  1  0.000  0.000  1.000  1.000  0.000  0.000   1.0 |
 |  0.50  0.50  0.07  2  2  1  0.000  0.000  1.000  1.000  0.000  0.000   1.0 |
 |  0.50  0.50  0.07  2  3  1  0.000  0.000  1.000  1.000  0.000  0.000   1.0 |
 |  0.50  0.50  0.07  2  4  1  0.000  0.000  1.000  1.000  0.000  0.000   1.0 |
 |  0.50  0.50  0.07  2  5  1  0.000  0.000  1.000  1.000  0.000  0.000   1.0 |
 |  0.25  0.50  0.07  2  1  1  0.000  0.000  1.000  1.000  0.000  0.000   1.0 |
 |  0.25  0.50  0.07  2  2  1  0.000  0.000  1.000  1.000  0.000  0.000   1.0 |
 |  0.25  0.50  0.07  2  3  1  0.000  0.000  1.000  1.000  0.000  0.000   1.0 |
 |  0.25  0.50  0.07  2  4  1  0.000  0.000  1.000  1.000  0.000  0.000   1.0 |
 |  0.25  0.50  0.07  2  5  1  0.000  0.000  1.000  1.000  0.000  0.000   1.0 |
 |  0.25  0.25  0.07  2  1  1  0.000  0.000  1.000  1.000  0.000  0.000   1.0 |
 |  0.25  0.25  0.07  2  2  1  0.000  0.000  1.000  1.000  0.000  0.000   1.0 |
 |  0.25  0.25  0.07  2  3  1  0.000  0.000  1.000  1.000  0.000  0.000   1.0 |
 |  0.25  0.25  0.07  2  4  1  0.000  0.000  1.000  1.000  0.000  0.000   1.0 |
 |  0.25  0.25  0.07  2  5  1  0.000  0.000  1.000  1.000  0.000  0.000   1.0 |
 |  0.00  0.25  0.07  2  1  1  0.000  0.000  1.000  1.000  0.000  0.000   1.0 |
 |  0.00  0.25  0.07  2  2  1  0.000  0.000  1.000  1.000  0.000  0.000   1.0 |
 |  0.00  0.25  0.07  2  3  1  0.000  0.000  1.000  1.000  0.000  0.000   1.0 |
 |  0.00  0.25  0.07  2  4  1  0.000  0.000  1.000  1.000  0.000  0.000   1.0 |
 |  0.00  0.25  0.07  2  5  1  0.000  0.000  1.000  1.000  0.000  0.000   1.0 |
 |  0.00  0.50  0.07  2  1  1  0.000  0.000  1.000  1.000  0.000  0.000   1.0 |
 |  0.00  0.50  0.07  2  2  1  0.000  0.000  1.000  1.000  0.000  0.000   1.0 |
 |  0.00  0.50  0.07  2  3  1  0.000  0.000  1.000  1.000  0.000  0.000   1.0 |
 |  0.00  0.50  0.07  2  4  1  0.000  0.000  1.000  1.000  0.000  0.000   1.0 |
 |  0.00  0.50  0.07  2  5  1  0.000  0.000  1.000  1.000  0.000  0.000   1.0 |
 |  0.17  0.08  0.00  1  1  1  0.000  0.000  1.000  1.000  0.000  0.000   1.0 |
 |  0.17  0.08  0.00  1  2  1  0.000  0.000  1.000  1.000  0.000  0.000   1.0 |
 |  0.17  0.08  0.00  1  3  1  0.000  0.000  1.000  1.000  0.000  0.000   1.0 |
 |  0.17  0.08  0.14  1  1  1  0.000  0.000  1.000  1.000  0.000  0.000   1.0 |
 |  0.17  0.08  0.14  1  2  1  0.000  0.000  1.000  1.000  0.000  0.000   1.0 |
 |  0.17  0.08  0.14  1  3  1  0.000  0.000  1.000  1.000  0.000  0.000   1.0 |
 |  0.42  0.08  0.00  1  1  1  0.000  0.000  1.000  1.000  0.000  0.000   1.0 |
 |  0.42  0.08  0.00  1  2  1  0.000  0.000  1.000  1.000  0.000  0.000   1.0 |
 |  0.42  0.08  0.00  1  3  1  0.000  0.000  1.000  1.000  0.000  0.000   1.0 |
 |  0.42  0.08  0.14  1  1  1  0.000  0.000  1.000  1.000  0.000  0.000   1.0 |
 |  0.42  0.08  0.14  1  2  1  0.000  0.000  1.000  1.000  0.000  0.000   1.0 |
 |  0.42  0.08  0.14  1  3  1  0.000  0.000  1.000  1.000  0.000  0.000   1.0 |
 |  0.67  0.08  0.00  1  1  1  0.000  0.000  1.000  1.000  0.000  0.000   1.0 |
 |  0.67  0.08  0.00  1  2  1  0.000  0.000  1.000  1.000  0.000  0.000   1.0 |
 |  0.67  0.08  0.00  1  3  1  0.000  0.000  1.000  1.000  0.000  0.000   1.0 |
 |  0.67  0.08  0.14  1  1  1  0.000  0.000  1.000  1.000  0.000  0.000   1.0 |
 |  0.67  0.08  0.14  1  2  1  0.000  0.000  1.000  1.000  0.000  0.000   1.0 |
 |  0.67  0.08  0.14  1  3  1  0.000  0.000  1.000  1.000  0.000  0.000   1.0 |
 |  0.92  0.08  0.00  1  1  1  0.000  0.000  1.000  1.000  0.000  0.000   1.0 |
 |  0.92  0.08  0.00  1  2  1  0.000  0.000  1.000  1.000  0.000  0.000   1.0 |
 |  0.92  0.08  0.00  1  3  1  0.000  0.000  1.000  1.000  0.000  0.000   1.0 |
 |  0.92  0.08  0.14  1  1  1  0.000  0.000  1.000  1.000  0.000  0.000   1.0 |
 |  0.92  0.08  0.14  1  2  1  0.000  0.000  1.000  1.000  0.000  0.000   1.0 |
 |  0.92  0.08  0.14  1  3  1  0.000  0.000  1.000  1.000  0.000  0.000   1.0 |
 |  0.92  0.33  0.00  1  1  1  0.000  0.000  1.000  1.000  0.000  0.000   1.0 |
 |  0.92  0.33  0.00  1  2  1  0.000  0.000  1.000  1.000  0.000  0.000   1.0 |
 |  0.92  0.33  0.00  1  3  1  0.000  0.000  1.000  1.000  0.000  0.000   1.0 |
 |  0.92  0.33  0.14  1  1  1  0.000  0.000  1.000  1.000  0.000  0.000   1.0 |
 |  0.92  0.33  0.14  1  2  1  0.000  0.000  1.000  1.000  0.000  0.000   1.0 |
 |  0.92  0.33  0.14  1  3  1  0.000  0.000  1.000  1.000  0.000  0.000   1.0 |
 |  0.92  0.58  0.00  1  1  1  0.000  0.000  1.000  1.000  0.000  0.000   1.0 |
 |  0.92  0.58  0.00  1  2  1  0.000  0.000  1.000  1.000  0.000  0.000   1.0 |
 |  0.92  0.58  0.00  1  3  1  0.000  0.000  1.000  1.000  0.000  0.000   1.0 |
 |  0.92  0.58  0.14  1  1  1  0.000  0.000  1.000  1.000  0.000  0.000   1.0 |
 |  0.92  0.58  0.14  1  2  1  0.000  0.000  1.000  1.000  0.000  0.000   1.0 |
 |  0.92  0.58  0.14  1  3  1  0.000  0.000  1.000  1.000  0.000  0.000   1.0 |
 |  0.92  0.83  0.00  1  1  1  0.000  0.000  1.000  1.000  0.000  0.000   1.0 |
 |  0.92  0.83  0.00  1  2  1  0.000  0.000  1.000  1.000  0.000  0.000   1.0 |
 |  0.92  0.83  0.00  1  3  1  0.000  0.000  1.000  1.000  0.000  0.000   1.0 |
 |  0.92  0.83  0.14  1  1  1  0.000  0.000  1.000  1.000  0.000  0.000   1.0 |
 |  0.92  0.83  0.14  1  2  1  0.000  0.000  1.000  1.000  0.000  0.000   1.0 |
 |  0.92  0.83  0.14  1  3  1  0.000  0.000  1.000  1.000  0.000  0.000   1.0 |
 |  0.67  0.83  0.00  1  1  1  0.000  0.000  1.000  1.000  0.000  0.000   1.0 |
 |  0.67  0.83  0.00  1  2  1  0.000  0.000  1.000  1.000  0.000  0.000   1.0 |
 |  0.67  0.83  0.00  1  3  1  0.000  0.000  1.000  1.000  0.000  0.000   1.0 |
 |  0.67  0.83  0.14  1  1  1  0.000  0.000  1.000  1.000  0.000  0.000   1.0 |
 |  0.67  0.83  0.14  1  2  1  0.000  0.000  1.000  1.000  0.000  0.000   1.0 |
 |  0.67  0.83  0.14  1  3  1  0.000  0.000  1.000  1.000  0.000  0.000   1.0 |
 |  0.42  0.83  0.00  1  1  1  0.000  0.000  1.000  1.000  0.000  0.000   1.0 |
 |  0.42  0.83  0.00  1  2  1  0.000  0.000  1.000  1.000  0.000  0.000   1.0 |
 |  0.42  0.83  0.00  1  3  1  0.000  0.000  1.000  1.000  0.000  0.000   1.0 |
 |  0.42  0.83  0.14  1  1  1  0.000  0.000  1.000  1.000  0.000  0.000   1.0 |
 |  0.42  0.83  0.14  1  2  1  0.000  0.000  1.000  1.000  0.000  0.000   1.0 |
 |  0.42  0.83  0.14  1  3  1  0.000  0.000  1.000  1.000  0.000  0.000   1.0 |
 |  0.17  0.83  0.00  1  1  1  0.000  0.000  1.000  1.000  0.000  0.000   1.0 |
 |  0.17  0.83  0.00  1  2  1  0.000  0.000  1.000  1.000  0.000  0.000   1.0 |
 |  0.17  0.83  0.00  1  3  1  0.000  0.000  1.000  1.000  0.000  0.000   1.0 |
 |  0.17  0.83  0.14  1  1  1  0.000  0.000  1.000  1.000  0.000  0.000   1.0 |
 |  0.17  0.83  0.14  1  2  1  0.000  0.000  1.000  1.000  0.000  0.000   1.0 |
 |  0.17  0.83  0.14  1  3  1  0.000  0.000  1.000  1.000  0.000  0.000   1.0 |
 |  0.67  0.33  0.00  1  1  1  0.000  0.000  1.000  1.000  0.000  0.000   1.0 |
 |  0.67  0.33  0.00  1  2  1  0.000  0.000  1.000  1.000  0.000  0.000   1.0 |
 |  0.67  0.33  0.00  1  3  1  0.000  0.000  1.000  1.000  0.000  0.000   1.0 |
 |  0.67  0.33  0.14  1  1  1  0.000  0.000  1.000  1.000  0.000  0.000   1.0 |
 |  0.67  0.33  0.14  1  2  1  0.000  0.000  1.000  1.000  0.000  0.000   1.0 |
 |  0.67  0.33  0.14  1  3  1  0.000  0.000  1.000  1.000  0.000  0.000   1.0 |
 |  0.67  0.58  0.00  1  1  1  0.000  0.000  1.000  1.000  0.000  0.000   1.0 |
 |  0.67  0.58  0.00  1  2  1  0.000  0.000  1.000  1.000  0.000  0.000   1.0 |
 |  0.67  0.58  0.00  1  3  1  0.000  0.000  1.000  1.000  0.000  0.000   1.0 |
 |  0.67  0.58  0.14  1  1  1  0.000  0.000  1.000  1.000  0.000  0.000   1.0 |
 |  0.67  0.58  0.14  1  2  1  0.000  0.000  1.000  1.000  0.000  0.000   1.0 |
 |  0.67  0.58  0.14  1  3  1  0.000  0.000  1.000  1.000  0.000  0.000   1.0 |
 |  0.42  0.58  0.00  1  1  1  0.000  0.000  1.000  1.000  0.000  0.000   1.0 |
 |  0.42  0.58  0.00  1  2  1  0.000  0.000  1.000  1.000  0.000  0.000   1.0 |
 |  0.42  0.58  0.00  1  3  1  0.000  0.000  1.000  1.000  0.000  0.000   1.0 |
 |  0.42  0.58  0.14  1  1  1  0.000  0.000  1.000  1.000  0.000  0.000   1.0 |
 |  0.42  0.58  0.14  1  2  1  0.000  0.000  1.000  1.000  0.000  0.000   1.0 |
 |  0.42  0.58  0.14  1  3  1  0.000  0.000  1.000  1.000  0.000  0.000   1.0 |
 |  0.42  0.33  0.00  1  1  1  0.000  0.000  1.000  1.000  0.000  0.000   1.0 |
 |  0.42  0.33  0.00  1  2  1  0.000  0.000  1.000  1.000  0.000  0.000   1.0 |
 |  0.42  0.33  0.00  1  3  1  0.000  0.000  1.000  1.000  0.000  0.000   1.0 |
 |  0.42  0.33  0.14  1  1  1  0.000  0.000  1.000  1.000  0.000  0.000   1.0 |
 |  0.42  0.33  0.14  1  2  1  0.000  0.000  1.000  1.000  0.000  0.000   1.0 |
 |  0.42  0.33  0.14  1  3  1  0.000  0.000  1.000  1.000  0.000  0.000   1.0 |
 |  0.17  0.33  0.00  1  1  1  0.000  0.000  1.000  1.000  0.000  0.000   1.0 |
 |  0.17  0.33  0.00  1  2  1  0.000  0.000  1.000  1.000  0.000  0.000   1.0 |
 |  0.17  0.33  0.00  1  3  1  0.000  0.000  1.000  1.000  0.000  0.000   1.0 |
 |  0.17  0.33  0.14  1  1  1  0.000  0.000  1.000  1.000  0.000  0.000   1.0 |
 |  0.17  0.33  0.14  1  2  1  0.000  0.000  1.000  1.000  0.000  0.000   1.0 |
 |  0.17  0.33  0.14  1  3  1  0.000  0.000  1.000  1.000  0.000  0.000   1.0 |
 |  0.17  0.58  0.00  1  1  1  0.000  0.000  1.000  1.000  0.000  0.000   1.0 |
 |  0.17  0.58  0.00  1  2  1  0.000  0.000  1.000  1.000  0.000  0.000   1.0 |
 |  0.17  0.58  0.00  1  3  1  0.000  0.000  1.000  1.000  0.000  0.000   1.0 |
 |  0.17  0.58  0.14  1  1  1  0.000  0.000  1.000  1.000  0.000  0.000   1.0 |
 |  0.17  0.58  0.14  1  2  1  0.000  0.000  1.000  1.000  0.000  0.000   1.0 |
 |  0.17  0.58  0.14  1  3  1  0.000  0.000  1.000  1.000  0.000  0.000   1.0 |
 +----------------------------------------------------------------------------+
  
                                ------------
                                K-POINT GRID
                                ------------
  
             Grid size =  1 x  1 x  1      Total points =    1
  
 *----------------------------------------------------------------------------*
 | k-point      Fractional Coordinate        Cartesian Coordinate (Ang^-1)    |
 +----------------------------------------------------------------------------+
 |     1    0.00000   0.00000   0.00000   |    0.00000   0.00000   0.00000    |
 *----------------------------------------------------------------------------*
  
  
 *---------------------------------- MAIN ------------------------------------*
 |  Number of Wannier Functions               :               176             |
 |  Number of Objective Wannier Functions     :               176             |
 |  Number of input Bloch states              :               300             |
 |  Output verbosity (1=low, 5=high)          :                 3             |
 |  Timing Level (1=low, 5=high)              :                 1             |
 |  Optimisation (0=memory, 3=speed)          :                 3             |
 |  Length Unit                               :               Ang             |
 |  Post-processing setup (write *.nnkp)      :                 F             |
 |  Using Gamma-only branch of algorithms     :                 F             |
 |  CP code post-processing                   :                 F             |
 |  Wavefunction (UNK) file-type              :       unformatted             |
 |  Wavefunction spin channel                 :                up             |
 *----------------------------------------------------------------------------*
 *------------------------------- WANNIERISE ---------------------------------*
 |  Total number of iterations                :               500             |
 |  Number of CG steps before reset           :                 5             |
 |  Trial step length for line search         :             2.000             |
 |  Convergence tolerence                     :         0.100E-09             |
 |  Convergence window                        :                -1             |
 |  Iterations between writing output         :                50             |
 |  Iterations between backing up to disk     :               100             |
 |  Write r^2_nm to file                      :                 F             |
 |  Write xyz WF centres to file              :                 T             |
 |  Write on-site energies <0n|H|0n> to file  :                 F             |
 |  Use guiding centre to control phases      :                 T             |
 |  Use phases for initial projections        :                 F             |
 |  Iterations before starting guiding centres:                 0             |
 |  Iterations between using guiding centres  :                 1             |
 |  Perform selective localization            :                 F             |
 |  Use constrains in selective localization  :                 F             |
 |  Value of the Lagrange multiplier          :         0.100E+01             |
 *----------------------------------------------------------------------------*
 *------------------------------- DISENTANGLE --------------------------------*
 |  Using band disentanglement                :                 T             |
 |  Total number of iterations                :              4000             |
 |  Mixing ratio                              :             0.500             |
 |  Convergence tolerence                     :         1.000E-10             |
 |  Convergence window                        :                 3             |
 *----------------------------------------------------------------------------*
 *-------------------------------- PLOTTING ----------------------------------*
 |  Plotting Wannier functions                :                 F             |
 |   Size of supercell for plotting           :     2x    2x    2             |
 |   Plotting mode (molecule or crystal)      :           crystal             |
 |   Plotting format                          :          xcrysden             |
 |   Plot radius                              :             3.500             |
 |   Plot scale                               :             1.000             |
 *----------------------------------------------------------------------------*
 |  Plotting Fermi surface                    :                 F             |
 |   Number of plotting points (along b_1)    :                50             |
 |   Plotting format                          :          xcrysden             |
 *----------------------------------------------------------------------------*
 |  Plotting interpolated bandstructure       :                 T             |
 |   Number of K-path sections                :                 3             |
 |   Divisions along first K-path section     :               100             |
 |   Output format                            :           gnuplot             |
 |   Output mode                              :               s-k             |
 *----------------------------------------------------------------------------*
 |   K-space path sections:                                                   |
 |    From: Γ      0.000  0.000  0.000     To: K       0.333  0.333  0.000   |
 |    From: K       0.333  0.333  0.000     To: M       0.500  0.000  0.000   |
 |    From: M       0.500  0.000  0.000     To: Γ      0.000  0.000  0.000   |
 *----------------------------------------------------------------------------*
 |  Plotting Hamiltonian in WF basis          :                 T             |
 *----------------------------------------------------------------------------*
 |  Writing data for Van der Waals post-proc  :                 F             |
 *----------------------------------------------------------------------------*
 *------------------------------- TRANSPORT ----------------------------------*
 |  Transport mode                            :              bulk             |
 |   Hamiltonian from external files          :                 F             |
 |   System extended in                       :              none             |
 |   Centre of the unit cell to which WF are translated (fract. coords):      |
 |                                       0.000000,    0.000000,    0.000000   |
 |  Fermi energy (eV)                         :             0.000             |
 *----------------------------------------------------------------------------*
 Time to read parameters        0.021 (sec)

 *---------------------------------- K-MESH ----------------------------------*
 +----------------------------------------------------------------------------+
 |                    Distance to Nearest-Neighbour Shells                    |
 |                    ------------------------------------                    |
 |          Shell             Distance (Ang^-1)          Multiplicity         |
 |          -----             -----------------          ------------         |
 |             1                   0.265883                      2            |
 |             2                   0.526343                      6            |
 |             3                   0.531765                      2            |
 |             4                   0.589686                     12            |
 |             5                   0.748205                     12            |
 |             6                   0.797648                      2            |
 |             7                   0.911652                      6            |
 |             8                   0.949633                     12            |
 |             9                   0.955656                     12            |
 |            10                   1.052685                      6            |
 |            11                   1.055407                     12            |
 |            12                   1.063530                      2            |
 |            13                   1.085744                     12            |
 |            14                   1.179373                     12            |
 |            15                   1.186648                     12            |
 |            16                   1.211343                     12            |
 |            17                   1.320753                     12            |
 |            18                   1.329413                      2            |
 |            19                   1.392572                     12            |
 |            20                   1.400788                     12            |
 |            21                   1.417727                     24            |
 |            22                   1.429816                     12            |
 |            23                   1.490648                     24            |
 |            24                   1.496410                     12            |
 |            25                   1.579028                      6            |
 |            26                   1.601257                     12            |
 |            27                   1.604836                     24            |
 |            28                   1.611970                     12            |
 |            29                   1.666164                     12            |
 |            30                   1.695726                     12            |
 |            31                   1.752242                     24            |
 |            32                   1.769059                     12            |
 |            33                   1.823305                      6            |
 |            34                   1.842589                     12            |
 |            35                   1.897756                     12            |
 |            36                   1.899267                     12            |
 +----------------------------------------------------------------------------+
 | The b-vectors are chosen automatically                                     |
 | Shell:  1 Multiplicity:  2                                                 |
 | b-vector 1 :        0.000000    0.000000    0.265883      (Ang^-1)         |
 | b-vector 2 :        0.000000    0.000000   -0.265883      (Ang^-1)         |
 | Shell:  1 w_b    7.0727819      (Ang^2)                                    |
 | B1 condition is not satisfied: Adding another shell                        |
 | Shell:  2 Multiplicity:  6                                                 |
 | b-vector 1 :        0.455826    0.263171    0.000000      (Ang^-1)         |
 | b-vector 2 :        0.455826   -0.263171    0.000000      (Ang^-1)         |
 | b-vector 3 :        0.000000    0.526343    0.000000      (Ang^-1)         |
 | b-vector 4 :        0.000000   -0.526343    0.000000      (Ang^-1)         |
 | b-vector 5 :       -0.455826    0.263171    0.000000      (Ang^-1)         |
 | b-vector 6 :       -0.455826   -0.263171    0.000000      (Ang^-1)         |
 | Shell:  1 w_b    7.0727819      (Ang^2)                                    |
 | Shell:  2 w_b    1.2032104      (Ang^2)                                    |
 | The following shells are used:   1,  2                                     |
 +----------------------------------------------------------------------------+
 |                        Shell   # Nearest-Neighbours                        |
 |                        -----   --------------------                        |
 |                          1               2                                 |
 |                          2               6                                 |
 +----------------------------------------------------------------------------+
 | Completeness relation is fully satisfied [Eq. (B1), PRB 56, 12847 (1997)]  |
 +----------------------------------------------------------------------------+
 |                  b_k Vectors (Ang^-1) and Weights (Ang^2)                  |
 |                  ----------------------------------------                  |
 |            No.         b_k(x)      b_k(y)      b_k(z)        w_b           |
 |            ---        --------------------------------     --------        |
 |             1         0.000000    0.000000    0.265883     7.072782        |
 |             2         0.000000    0.000000   -0.265883     7.072782        |
 |             3         0.455826    0.263171    0.000000     1.203210        |
 |             4         0.455826   -0.263171    0.000000     1.203210        |
 |             5         0.000000    0.526343    0.000000     1.203210        |
 |             6         0.000000   -0.526343    0.000000     1.203210        |
 |             7        -0.455826    0.263171    0.000000     1.203210        |
 |             8        -0.455826   -0.263171    0.000000     1.203210        |
 +----------------------------------------------------------------------------+
 |                           b_k Directions (Ang^-1)                          |
 |                           -----------------------                          |
 |            No.           x           y           z                         |
 |            ---        --------------------------------                     |
 |             1         0.000000    0.000000    0.265883                     |
 |             2         0.455826    0.263171    0.000000                     |
 |             3         0.455826   -0.263171    0.000000                     |
 |             4         0.000000    0.526343    0.000000                     |
 +----------------------------------------------------------------------------+
  
 Time to get kmesh              0.012 (sec)
 *============================================================================*
 |                              MEMORY ESTIMATE                               |
 |         Maximum RAM allocated during each phase of the calculation         |
 *============================================================================*
 |                        Disentanglement           20.05 Mb                  |
 |                            Wannierise:           12.78 Mb                  |
 |                                                                            |
 |   N.B. by setting optimisation=0 memory usage will be reduced to:          |
 |                        Disentanglement           20.05 Mb                  |
 |                            Wannierise:            9.00 Mb                  |
 |   However, this will result in more i/o and slow down the calculation      |
 |                          plot_wannier:           12.78 Mb                  |
 *----------------------------------------------------------------------------*
  
 Starting a new Wannier90 calculation ...


 Reading overlaps from 1Fe_initialconf.up.mmn    :  Created on  8Nov2023 at 18:46:46

 Reading projections from 1Fe_initialconf.up.amn :  Created on  8Nov2023 at 18:45:38

 Time to read overlaps          1.809 (sec)

 *------------------------------- DISENTANGLE --------------------------------*
 +----------------------------------------------------------------------------+
 |                              Energy  Windows                               |
 |                              ---------------                               |
 |                   Outer:  -30.00000  to   30.00000  (eV)                   |
 |                   Inner:   -6.00000  to    2.50000  (eV)                   |
 +----------------------------------------------------------------------------+
 |                        K-points with Frozen States                         |
 |                        ---------------------------                         |
 |     1                                                                      |
 +----------------------------------------------------------------------------+
   Number of target bands to extract:  176
 +----------------------------------------------------------------------------+
 |                                  Windows                                   |
 |                                  -------                                   |
 |               K-point      Ndimwin     Ndimfroz    Nfirstwin               |
 |               ----------------------------------------------               |
 |                   1          236          163          65                  |
 +----------------------------------------------------------------------------+

                   Unitarised projection of Wannier functions                  
                   ------------------------------------------                  
   A_mn = <psi_m|g_n> --> S = A.A^+ --> U = S^-1/2.A
   In dis_project... done
   Using an inner window (linner = T)
   In dis_proj_froz...
 K-point   1 ndimwin: 236 we want the 13 leading eigenvector(s) of QPQ
  lambda(  1)= -0.000000000000
  lambda(  2)= -0.000000000000
  lambda(  3)= -0.000000000000
  lambda(  4)= -0.000000000000
  lambda(  5)= -0.000000000000
  lambda(  6)= -0.000000000000
  lambda(  7)= -0.000000000000
  lambda(  8)= -0.000000000000
  lambda(  9)= -0.000000000000
  lambda( 10)= -0.000000000000
  lambda( 11)= -0.000000000000
  lambda( 12)= -0.000000000000
  lambda( 13)= -0.000000000000
  lambda( 14)= -0.000000000000
  lambda( 15)= -0.000000000000
  lambda( 16)= -0.000000000000
  lambda( 17)= -0.000000000000
  lambda( 18)= -0.000000000000
  lambda( 19)= -0.000000000000
  lambda( 20)= -0.000000000000
  lambda( 21)= -0.000000000000
  lambda( 22)= -0.000000000000
  lambda( 23)= -0.000000000000
  lambda( 24)= -0.000000000000
  lambda( 25)= -0.000000000000
  lambda( 26)= -0.000000000000
  lambda( 27)= -0.000000000000
  lambda( 28)= -0.000000000000
  lambda( 29)= -0.000000000000
  lambda( 30)= -0.000000000000
  lambda( 31)= -0.000000000000
  lambda( 32)= -0.000000000000
  lambda( 33)= -0.000000000000
  lambda( 34)= -0.000000000000
  lambda( 35)= -0.000000000000
  lambda( 36)= -0.000000000000
  lambda( 37)= -0.000000000000
  lambda( 38)= -0.000000000000
  lambda( 39)= -0.000000000000
  lambda( 40)= -0.000000000000
  lambda( 41)= -0.000000000000
  lambda( 42)= -0.000000000000
  lambda( 43)= -0.000000000000
  lambda( 44)= -0.000000000000
  lambda( 45)= -0.000000000000
  lambda( 46)= -0.000000000000
  lambda( 47)= -0.000000000000
  lambda( 48)= -0.000000000000
  lambda( 49)= -0.000000000000
  lambda( 50)= -0.000000000000
  lambda( 51)= -0.000000000000
  lambda( 52)= -0.000000000000
  lambda( 53)= -0.000000000000
  lambda( 54)= -0.000000000000
  lambda( 55)= -0.000000000000
  lambda( 56)= -0.000000000000
  lambda( 57)= -0.000000000000
  lambda( 58)= -0.000000000000
  lambda( 59)= -0.000000000000
  lambda( 60)= -0.000000000000
  lambda( 61)= -0.000000000000
  lambda( 62)= -0.000000000000
  lambda( 63)= -0.000000000000
  lambda( 64)= -0.000000000000
  lambda( 65)= -0.000000000000
  lambda( 66)= -0.000000000000
  lambda( 67)= -0.000000000000
  lambda( 68)= -0.000000000000
  lambda( 69)= -0.000000000000
  lambda( 70)= -0.000000000000
  lambda( 71)= -0.000000000000
  lambda( 72)= -0.000000000000
  lambda( 73)= -0.000000000000
  lambda( 74)= -0.000000000000
  lambda( 75)= -0.000000000000
  lambda( 76)= -0.000000000000
  lambda( 77)= -0.000000000000
  lambda( 78)= -0.000000000000
  lambda( 79)= -0.000000000000
  lambda( 80)= -0.000000000000
  lambda( 81)= -0.000000000000
  lambda( 82)=  0.000000000000
  lambda( 83)=  0.000000000000
  lambda( 84)=  0.000000000000
  lambda( 85)=  0.000000000000
  lambda( 86)=  0.000000000000
  lambda( 87)=  0.000000000000
  lambda( 88)=  0.000000000000
  lambda( 89)=  0.000000000000
  lambda( 90)=  0.000000000000
  lambda( 91)=  0.000000000000
  lambda( 92)=  0.000000000000
  lambda( 93)=  0.000000000000
  lambda( 94)=  0.000000000000
  lambda( 95)=  0.000000000000
  lambda( 96)=  0.000000000000
  lambda( 97)=  0.000000000000
  lambda( 98)=  0.000000000000
  lambda( 99)=  0.000000000000
  lambda(100)=  0.000000000000
  lambda(101)=  0.000000000000
  lambda(102)=  0.000000000000
  lambda(103)=  0.000000000000
  lambda(104)=  0.000000000000
  lambda(105)=  0.000000000000
  lambda(106)=  0.000000000000
  lambda(107)=  0.000000000000
  lambda(108)=  0.000000000000
  lambda(109)=  0.000000000000
  lambda(110)=  0.000000000000
  lambda(111)=  0.000000000000
  lambda(112)=  0.000000000000
  lambda(113)=  0.000000000000
  lambda(114)=  0.000000000000
  lambda(115)=  0.000000000000
  lambda(116)=  0.000000000000
  lambda(117)=  0.000000000000
  lambda(118)=  0.000000000000
  lambda(119)=  0.000000000000
  lambda(120)=  0.000000000000
  lambda(121)=  0.000000000000
  lambda(122)=  0.000000000000
  lambda(123)=  0.000000000000
  lambda(124)=  0.000000000000
  lambda(125)=  0.000000000000
  lambda(126)=  0.000000000000
  lambda(127)=  0.000000000000
  lambda(128)=  0.000000000000
  lambda(129)=  0.000000000000
  lambda(130)=  0.000000000000
  lambda(131)=  0.000000000000
  lambda(132)=  0.000000000000
  lambda(133)=  0.000000000000
  lambda(134)=  0.000000000000
  lambda(135)=  0.000000000000
  lambda(136)=  0.000000000000
  lambda(137)=  0.000000000000
  lambda(138)=  0.000000000000
  lambda(139)=  0.000000000000
  lambda(140)=  0.000000000000
  lambda(141)=  0.000000000000
  lambda(142)=  0.000000000000
  lambda(143)=  0.000000000000
  lambda(144)=  0.000000000000
  lambda(145)=  0.000000000000
  lambda(146)=  0.000000000000
  lambda(147)=  0.000000000000
  lambda(148)=  0.000000000000
  lambda(149)=  0.000000000000
  lambda(150)=  0.000000000000
  lambda(151)=  0.000000000000
  lambda(152)=  0.000000000000
  lambda(153)=  0.000000000000
  lambda(154)=  0.000000000000
  lambda(155)=  0.000000000000
  lambda(156)=  0.000000000000
  lambda(157)=  0.000000000000
  lambda(158)=  0.000000000000
  lambda(159)=  0.000000000000
  lambda(160)=  0.000000000000
  lambda(161)=  0.000000000000
  lambda(162)=  0.000000000000
  lambda(163)=  0.000000000000
  lambda(164)=  0.000000000000
  lambda(165)=  0.000000000001
  lambda(166)=  0.000000000064
  lambda(167)=  0.000000000279
  lambda(168)=  0.000000004508
  lambda(169)=  0.000781407765
  lambda(170)=  0.000781475059
  lambda(171)=  0.000781492038
  lambda(172)=  0.000781595943
  lambda(173)=  0.000781611105
  lambda(174)=  0.000781670243
  lambda(175)=  0.015956821994
  lambda(176)=  0.015956853938
  lambda(177)=  0.015957247293
  lambda(178)=  0.015957361152
  lambda(179)=  0.015957556027
  lambda(180)=  0.015957604383
  lambda(181)=  0.019823893231
  lambda(182)=  0.031144425657
  lambda(183)=  0.031180347893
  lambda(184)=  0.031180373474
  lambda(185)=  0.039609514371
  lambda(186)=  0.039609590015
  lambda(187)=  0.039610413178
  lambda(188)=  0.039610647112
  lambda(189)=  0.039613626355
  lambda(190)=  0.039613688001
  lambda(191)=  0.043268431803
  lambda(192)=  0.079091684020
  lambda(193)=  0.079105156028
  lambda(194)=  0.079105277869
  lambda(195)=  0.089607498609
  lambda(196)=  0.089607500647
  lambda(197)=  0.089617620821
  lambda(198)=  0.089617687204
  lambda(199)=  0.089632137713
  lambda(200)=  0.089632166269
  lambda(201)=  0.091603875247
  lambda(202)=  0.091605744835
  lambda(203)=  0.108924033527
  lambda(204)=  0.108924594202
  lambda(205)=  0.108924925624
  lambda(206)=  0.108925037730
  lambda(207)=  0.121198505735
  lambda(208)=  0.121198815760
  lambda(209)=  0.121203407922
  lambda(210)=  0.121203953346
  lambda(211)=  0.121205798912
  lambda(212)=  0.121206323033
  lambda(213)=  0.140765087147
  lambda(214)=  0.140775658911
  lambda(215)=  0.150586894018
  lambda(216)=  0.150586922893
  lambda(217)=  0.150587333980
  lambda(218)=  0.150587425521
  lambda(219)=  0.150593575675
  lambda(220)=  0.150593638232
  lambda(221)=  0.200190213360
  lambda(222)=  0.200190311501
  lambda(223)=  0.200196902472
  lambda(224)=  1.000000000000
  lambda(225)=  1.000000000000
  lambda(226)=  1.000000000000
  lambda(227)=  1.000000000000
  lambda(228)=  1.000000000000
  lambda(229)=  1.000000000000
  lambda(230)=  1.000000000000
  lambda(231)=  1.000000000000
  lambda(232)=  1.000000000000
  lambda(233)=  1.000000000000
  lambda(234)=  1.000000000000
  lambda(235)=  1.000000000000
  lambda(236)=  1.000000000000
 done

                   Extraction of optimally-connected subspace                  
                   ------------------------------------------                  
  Original eigenvalues inside outer window:

  K-point   1   -15.16109 -14.52077 -14.52069 -14.52069 -14.52053 -14.52053 -14.52046 -14.17608 -13.88567 -13.88559 -13.88559 -13.88544 -13.88544 -13.88537 -13.75462 -13.75462 -13.75455 -13.75454 -13.75438 -13.75438
-13.73577 -13.73576 -13.73576 -13.53949 -13.53948 -13.53948 -13.53221 -13.53221 -13.53213 -13.53212 -13.53196 -13.53196  -6.56987  -6.56987  -6.56987  -6.43642  -5.89638  -5.89638  -5.89631  -5.89631
 -5.89631  -5.89631  -5.74169  -5.74163  -5.74163  -5.74150  -5.74150  -5.74143  -5.65168  -5.65168  -5.65168  -5.58339  -5.58339  -5.58332  -5.58332  -5.58315  -5.58315  -4.93366  -4.93365  -4.93365
 -4.89529  -4.89525  -4.89525  -4.89516  -4.89516  -4.89513  -4.76664  -4.76664  -4.76655  -4.76655  -4.76643  -4.76643  -4.39542  -4.39539  -4.39539  -4.39533  -4.39533  -4.39529  -4.16814  -4.16814
 -4.16813  -4.16813  -4.16804  -4.16804  -3.94527  -3.94527  -3.94520  -3.94520  -3.94513  -3.94513  -3.91359  -3.91359  -3.91359  -3.34842  -3.34842  -3.27899  -3.27897  -3.27897  -3.27891  -3.27891
 -3.27889  -2.98491  -2.98490  -2.98490  -2.95543  -2.82979  -2.82979  -2.82970  -2.82969  -2.82964  -2.82964  -2.74808  -2.74804  -2.74804  -2.74796  -2.74796  -2.74793  -2.59989  -2.59984  -2.59984
 -2.59974  -2.59974  -2.59969  -2.36086  -2.36086  -2.21771  -2.21771  -2.21771  -1.73984  -1.73984  -1.73983  -1.63867  -1.63861  -1.63861  -1.63850  -1.63850  -1.63844  -1.42592  -1.42592  -1.42587
 -1.42587  -1.42571  -1.42571  -0.96326   0.92572   0.92578   0.92578   0.92588   0.92588   0.92593   0.94718   0.94718   0.94720   0.94720   0.94733   0.94733   1.08505   1.08505   1.08505   1.10594
  1.10598   1.10598   1.10605   1.10605   1.10608   1.46756   1.46760   1.46760   1.46769   1.46769   1.46773   1.47564   1.47564   1.47565   1.47988   1.47988   1.51894   1.51894   1.51897   1.51897
  1.51911   1.51911   1.66158   1.66158   1.79588   1.79589   1.79601   1.79601   1.79605   1.79605   2.33093   2.33093   2.33093   2.42352   2.42354   2.42354   2.42360   2.42360   2.42362   2.92667
  2.92667   2.92667   3.01931   3.01931   3.01936   3.01936   3.01946   3.01946   3.09124   3.55452   3.69787   4.14040   4.14040   4.14041   4.20525   4.35458   4.35460   4.35460   4.35464   4.35464
  4.35466   4.58685   4.58687   4.58687   4.58690   4.58690   4.58692   4.68584   4.90979   4.90980   4.90980   4.90982   4.90982   4.90982   5.44387   5.44389
 +---------------------------------------------------------------------+<-- DIS
 |  Iter     Omega_I(i-1)      Omega_I(i)      Delta (frac.)    Time   |<-- DIS
 +---------------------------------------------------------------------+<-- DIS
       1     304.79427556     303.33958728       4.796E-03      0.00    <-- DIS
       2     303.60106395     302.78876901       2.683E-03      0.06    <-- DIS
       3     303.05113709     302.38512747       2.203E-03      0.12    <-- DIS
       4     302.61912566     302.08757242       1.760E-03      0.18    <-- DIS
       5     302.28564221     301.86700707       1.387E-03      0.24    <-- DIS
       6     302.03053046     301.70268879       1.087E-03      0.30    <-- DIS
       7     301.83616813     301.57972561       8.503E-04      0.36    <-- DIS
       8     301.68825438     301.48734743       6.664E-04      0.42    <-- DIS
       9     301.57561294     301.41770929       5.239E-04      0.49    <-- DIS
      10     301.48968303     301.36505844       4.135E-04      0.57    <-- DIS
      11     301.42397566     301.32515028       3.280E-04      0.63    <-- DIS
      12     301.37359625     301.29483546       2.614E-04      0.69    <-- DIS
      13     301.33485851     301.27176566       2.094E-04      0.75    <-- DIS
      14     301.30498472     301.25418215       1.686E-04      0.81    <-- DIS
      15     301.28187822     301.24076270       1.365E-04      0.87    <-- DIS
      16     301.26395269     301.23050994       1.110E-04      0.93    <-- DIS
      17     301.25000469     301.22266937       9.075E-05      0.99    <-- DIS
      18     301.23911870     301.21666886       7.453E-05      1.05    <-- DIS
      19     301.23059630     301.21207360       6.149E-05      1.11    <-- DIS
      20     301.22390320     301.20855262       5.096E-05      1.17    <-- DIS
      21     301.21862966     301.20585355       4.242E-05      1.23    <-- DIS
      22     301.21446063     301.20378377       3.545E-05      1.29    <-- DIS
      23     301.21115329     301.20219606       2.974E-05      1.35    <-- DIS
      24     301.20852007     301.20097783       2.504E-05      1.41    <-- DIS
      25     301.20641572     301.20004290       2.116E-05      1.47    <-- DIS
      26     301.20472750     301.19932526       1.794E-05      1.53    <-- DIS
      27     301.20336772     301.19877433       1.525E-05      1.59    <-- DIS
      28     301.20226801     301.19835133       1.300E-05      1.65    <-- DIS
      29     301.20137492     301.19802652       1.112E-05      1.71    <-- DIS
      30     301.20064655     301.19777709       9.527E-06      1.77    <-- DIS
      31     301.20005000     301.19758553       8.182E-06      1.83    <-- DIS
      32     301.19955934     301.19743840       7.042E-06      1.89    <-- DIS
      33     301.19915405     301.19732540       6.071E-06      1.95    <-- DIS
      34     301.19881790     301.19723860       5.243E-06      2.01    <-- DIS
      35     301.19853795     301.19717193       4.535E-06      2.07    <-- DIS
      36     301.19830389     301.19712072       3.928E-06      2.13    <-- DIS
      37     301.19810745     301.19708138       3.407E-06      2.19    <-- DIS
      38     301.19794199     301.19705116       2.958E-06      2.25    <-- DIS
      39     301.19780213     301.19702794       2.570E-06      2.31    <-- DIS
      40     301.19768354     301.19701011       2.236E-06      2.37    <-- DIS
      41     301.19758267     301.19699641       1.946E-06      2.43    <-- DIS
      42     301.19749663     301.19698588       1.696E-06      2.49    <-- DIS
      43     301.19742304     301.19697780       1.478E-06      2.55    <-- DIS
      44     301.19735996     301.19697159       1.289E-06      2.61    <-- DIS
      45     301.19730575     301.19696682       1.125E-06      2.67    <-- DIS
      46     301.19725908     301.19696315       9.825E-07      2.73    <-- DIS
      47     301.19721882     301.19696034       8.582E-07      2.79    <-- DIS
      48     301.19718404     301.19695817       7.499E-07      2.85    <-- DIS
      49     301.19715394     301.19695651       6.555E-07      2.91    <-- DIS
      50     301.19712785     301.19695523       5.731E-07      2.97    <-- DIS
      51     301.19710522     301.19695425       5.012E-07      3.03    <-- DIS
      52     301.19708556     301.19695350       4.385E-07      3.09    <-- DIS
      53     301.19706847     301.19695292       3.836E-07      3.15    <-- DIS
      54     301.19705359     301.19695248       3.357E-07      3.21    <-- DIS
      55     301.19704064     301.19695213       2.938E-07      3.27    <-- DIS
      56     301.19702935     301.19695187       2.572E-07      3.33    <-- DIS
      57     301.19701950     301.19695167       2.252E-07      3.39    <-- DIS
      58     301.19701091     301.19695152       1.972E-07      3.45    <-- DIS
      59     301.19700341     301.19695140       1.727E-07      3.51    <-- DIS
      60     301.19699685     301.19695130       1.512E-07      3.57    <-- DIS
      61     301.19699113     301.19695123       1.325E-07      3.64    <-- DIS
      62     301.19698612     301.19695118       1.160E-07      3.70    <-- DIS
      63     301.19698175     301.19695114       1.016E-07      3.76    <-- DIS
      64     301.19697792     301.19695111       8.903E-08      3.82    <-- DIS
      65     301.19697457     301.19695108       7.800E-08      3.88    <-- DIS
      66     301.19697165     301.19695106       6.833E-08      3.94    <-- DIS
      67     301.19696908     301.19695105       5.987E-08      4.00    <-- DIS
      68     301.19696684     301.19695104       5.246E-08      4.06    <-- DIS
      69     301.19696487     301.19695103       4.596E-08      4.12    <-- DIS
      70     301.19696315     301.19695102       4.028E-08      4.18    <-- DIS
      71     301.19696165     301.19695102       3.529E-08      4.24    <-- DIS
      72     301.19696033     301.19695101       3.093E-08      4.30    <-- DIS
      73     301.19695917     301.19695101       2.710E-08      4.36    <-- DIS
      74     301.19695816     301.19695101       2.375E-08      4.42    <-- DIS
      75     301.19695728     301.19695101       2.081E-08      4.48    <-- DIS
      76     301.19695650     301.19695101       1.824E-08      4.54    <-- DIS
      77     301.19695582     301.19695101       1.598E-08      4.60    <-- DIS
      78     301.19695522     301.19695100       1.401E-08      4.66    <-- DIS
      79     301.19695470     301.19695100       1.228E-08      4.71    <-- DIS
      80     301.19695424     301.19695100       1.076E-08      4.77    <-- DIS
      81     301.19695384     301.19695100       9.430E-09      4.83    <-- DIS
      82     301.19695349     301.19695100       8.264E-09      4.89    <-- DIS
      83     301.19695318     301.19695100       7.243E-09      4.95    <-- DIS
      84     301.19695291     301.19695100       6.348E-09      5.01    <-- DIS
      85     301.19695268     301.19695100       5.564E-09      5.08    <-- DIS
      86     301.19695247     301.19695100       4.876E-09      5.14    <-- DIS
      87     301.19695229     301.19695100       4.274E-09      5.20    <-- DIS
      88     301.19695213     301.19695100       3.746E-09      5.26    <-- DIS
      89     301.19695199     301.19695100       3.283E-09      5.32    <-- DIS
      90     301.19695187     301.19695100       2.877E-09      5.38    <-- DIS
      91     301.19695176     301.19695100       2.522E-09      5.44    <-- DIS
      92     301.19695167     301.19695100       2.210E-09      5.50    <-- DIS
      93     301.19695159     301.19695100       1.937E-09      5.56    <-- DIS
      94     301.19695151     301.19695100       1.698E-09      5.62    <-- DIS
      95     301.19695145     301.19695100       1.488E-09      5.68    <-- DIS
      96     301.19695139     301.19695100       1.304E-09      5.74    <-- DIS
      97     301.19695135     301.19695100       1.143E-09      5.80    <-- DIS
      98     301.19695130     301.19695100       1.002E-09      5.86    <-- DIS
      99     301.19695127     301.19695100       8.782E-10      5.92    <-- DIS
     100     301.19695123     301.19695100       7.697E-10      5.98    <-- DIS
     101     301.19695120     301.19695100       6.747E-10      6.04    <-- DIS
     102     301.19695118     301.19695100       5.913E-10      6.10    <-- DIS
     103     301.19695116     301.19695100       5.183E-10      6.16    <-- DIS
     104     301.19695114     301.19695100       4.543E-10      6.22    <-- DIS
     105     301.19695112     301.19695100       3.982E-10      6.28    <-- DIS
     106     301.19695111     301.19695100       3.490E-10      6.34    <-- DIS
     107     301.19695109     301.19695100       3.059E-10      6.40    <-- DIS
     108     301.19695108     301.19695100       2.681E-10      6.46    <-- DIS
     109     301.19695107     301.19695100       2.350E-10      6.52    <-- DIS
     110     301.19695106     301.19695100       2.060E-10      6.58    <-- DIS
     111     301.19695106     301.19695100       1.805E-10      6.64    <-- DIS
     112     301.19695105     301.19695100       1.582E-10      6.70    <-- DIS
     113     301.19695104     301.19695100       1.387E-10      6.76    <-- DIS
     114     301.19695104     301.19695100       1.216E-10      6.82    <-- DIS
     115     301.19695103     301.19695100       1.065E-10      6.88    <-- DIS
     116     301.19695103     301.19695100       9.339E-11      6.94    <-- DIS
     117     301.19695103     301.19695100       8.185E-11      7.00    <-- DIS
     118     301.19695102     301.19695100       7.174E-11      7.06    <-- DIS

             <<<      Delta < 1.000E-10  over  3 iterations     >>>
             <<< Disentanglement convergence criteria satisfied >>>

        Final Omega_I   301.19695100 (Ang^2)


  Eigenvalues inside optimal subspace:

  K-point   1   -6.53039  -6.53039  -6.53038  -6.43113  -5.89638  -5.89638  -5.89631  -5.89631  -5.89631  -5.89631  -5.74169  -5.74163  -5.74163  -5.74150  -5.74150  -5.74143  -5.65168  -5.65168  -5.65168  -5.58339
 -5.58339  -5.58332  -5.58332  -5.58315  -5.58315  -4.93366  -4.93365  -4.93365  -4.89529  -4.89525  -4.89525  -4.89516  -4.89516  -4.89513  -4.76664  -4.76664  -4.76655  -4.76655  -4.76643  -4.76643
 -4.39542  -4.39539  -4.39539  -4.39533  -4.39533  -4.39529  -4.16814  -4.16814  -4.16813  -4.16813  -4.16804  -4.16804  -3.94527  -3.94527  -3.94520  -3.94520  -3.94513  -3.94513  -3.91359  -3.91359
 -3.91359  -3.34842  -3.34842  -3.27899  -3.27897  -3.27897  -3.27891  -3.27891  -3.27889  -2.98491  -2.98490  -2.98490  -2.95543  -2.82979  -2.82979  -2.82970  -2.82969  -2.82964  -2.82964  -2.74808
 -2.74804  -2.74804  -2.74796  -2.74796  -2.74793  -2.59989  -2.59984  -2.59984  -2.59974  -2.59974  -2.59969  -2.36086  -2.36086  -2.21771  -2.21771  -2.21771  -1.73984  -1.73984  -1.73983  -1.63867
 -1.63861  -1.63861  -1.63850  -1.63850  -1.63844  -1.42592  -1.42592  -1.42587  -1.42587  -1.42571  -1.42571  -0.96326   0.92572   0.92578   0.92578   0.92588   0.92588   0.92593   0.94718   0.94718
  0.94720   0.94720   0.94733   0.94733   1.08505   1.08505   1.08505   1.10594   1.10598   1.10598   1.10605   1.10605   1.10608   1.46756   1.46760   1.46760   1.46769   1.46769   1.46773   1.47564
  1.47564   1.47565   1.47988   1.47988   1.51894   1.51894   1.51897   1.51897   1.51911   1.51911   1.66158   1.66158   1.79588   1.79589   1.79601   1.79601   1.79605   1.79605   2.33093   2.33093
  2.33093   2.42352   2.42354   2.42354   2.42360   2.42360   2.42362   2.89732   2.89733   2.89742   2.89742   2.89744   2.89744   2.92667   2.92667   2.92667
 +----------------------------------------------------------------------------+

 Time to disentangle bands      7.450 (sec)

 Writing checkpoint file 1Fe_initialconf.up.chk... done

 
 *------------------------------- WANNIERISE ---------------------------------*
 +--------------------------------------------------------------------+<-- CONV
 | Iter  Delta Spread     RMS Gradient      Spread (Ang^2)      Time  |<-- CONV
 +--------------------------------------------------------------------+<-- CONV
 
 ------------------------------------------------------------------------------
 Initial State
  WF centre and spread    1  ( -0.000000,  0.000000,  1.677153 )     1.66947330
  WF centre and spread    2  (  0.000001,  0.004657,  1.677150 )     1.83901573
  WF centre and spread    3  ( -0.000001, -0.004786,  1.677150 )     1.83899997
  WF centre and spread    4  ( -0.000001,  0.100824,  1.677152 )     1.72953002
  WF centre and spread    5  ( -0.000002, -0.100573,  1.677152 )     1.72952668
  WF centre and spread    6  (  3.446052, -0.000002,  1.677152 )     1.66940875
  WF centre and spread    7  (  3.446055,  0.004657,  1.677150 )     1.83894340
  WF centre and spread    8  (  3.446047, -0.004792,  1.677150 )     1.83893594
  WF centre and spread    9  (  3.446054,  0.100816,  1.677152 )     1.72945580
  WF centre and spread   10  (  3.446054, -0.100568,  1.677152 )     1.72945764
  WF centre and spread   11  (  6.892085, -0.000003,  1.677152 )     1.66934693
  WF centre and spread   12  (  6.892086,  0.004657,  1.677149 )     1.83887343
  WF centre and spread   13  (  6.892085, -0.004798,  1.677150 )     1.83887594
  WF centre and spread   14  (  6.892084,  0.100809,  1.677152 )     1.72938683
  WF centre and spread   15  (  6.892083, -0.100563,  1.677152 )     1.72939152
  WF centre and spread   16  ( 10.338118, -0.000002,  1.677152 )     1.66940865
  WF centre and spread   17  ( 10.338117,  0.004657,  1.677150 )     1.83894340
  WF centre and spread   18  ( 10.338122, -0.004792,  1.677150 )     1.83893600
  WF centre and spread   19  ( 10.338115,  0.100816,  1.677152 )     1.72945674
  WF centre and spread   20  ( 10.338113, -0.100568,  1.677152 )     1.72945693
  WF centre and spread   21  (  8.615103,  2.984363,  1.677152 )     1.66934690
  WF centre and spread   22  (  8.615105,  2.989021,  1.677149 )     1.83889039
  WF centre and spread   23  (  8.615105,  2.979573,  1.677149 )     1.83887732
  WF centre and spread   24  (  8.615101,  3.085175,  1.677152 )     1.72939703
  WF centre and spread   25  (  8.615098,  2.883804,  1.677152 )     1.72939306
  WF centre and spread   26  (  6.892085,  5.968717,  1.677152 )     1.66934693
  WF centre and spread   27  (  6.892086,  5.973379,  1.677149 )     1.83889446
  WF centre and spread   28  (  6.892085,  5.963930,  1.677149 )     1.83887326
  WF centre and spread   29  (  6.892085,  6.069524,  1.677152 )     1.72939718
  WF centre and spread   30  (  6.892083,  5.868155,  1.677152 )     1.72939430
  WF centre and spread   31  (  5.169057,  8.953075,  1.677152 )     1.66940853
  WF centre and spread   32  (  5.169055,  8.957736,  1.677150 )     1.83894629
  WF centre and spread   33  (  5.169059,  8.948286,  1.677150 )     1.83893300
  WF centre and spread   34  (  5.169055,  9.053887,  1.677152 )     1.72945570
  WF centre and spread   35  (  5.169055,  8.852506,  1.677152 )     1.72945919
  WF centre and spread   36  (  1.723015,  8.953078,  1.677152 )     1.66934244
  WF centre and spread   37  (  1.723012,  8.957740,  1.677150 )     1.83886522
  WF centre and spread   38  (  1.723017,  8.948287,  1.677150 )     1.83885642
  WF centre and spread   39  (  1.723013,  9.053885,  1.677152 )     1.72937787
  WF centre and spread   40  (  1.723012,  8.852520,  1.677152 )     1.72938006
  WF centre and spread   41  ( -1.723016,  8.953078,  1.677152 )     1.66934236
  WF centre and spread   42  ( -1.723011,  8.957740,  1.677150 )     1.83886517
  WF centre and spread   43  ( -1.723018,  8.948287,  1.677150 )     1.83885642
  WF centre and spread   44  ( -1.723015,  9.053885,  1.677152 )     1.72937815
  WF centre and spread   45  ( -1.723017,  8.852520,  1.677152 )     1.72937976
  WF centre and spread   46  ( -5.169058,  8.953075,  1.677152 )     1.66940865
  WF centre and spread   47  ( -5.169053,  8.957736,  1.677150 )     1.83894624
  WF centre and spread   48  ( -5.169061,  8.948286,  1.677150 )     1.83893297
  WF centre and spread   49  ( -5.169057,  9.053887,  1.677152 )     1.72945562
  WF centre and spread   50  ( -5.169059,  8.852506,  1.677152 )     1.72945889
  WF centre and spread   51  (  5.169067,  2.984363,  1.677152 )     1.66934667
  WF centre and spread   52  (  5.169067,  2.989021,  1.677149 )     1.83889046
  WF centre and spread   53  (  5.169065,  2.979573,  1.677149 )     1.83887734
  WF centre and spread   54  (  5.169068,  3.085175,  1.677152 )     1.72939684
  WF centre and spread   55  (  5.169069,  2.883804,  1.677152 )     1.72939362
  WF centre and spread   56  (  3.446040,  5.968723,  1.677152 )     1.66934682
  WF centre and spread   57  (  3.446036,  5.973383,  1.677150 )     1.83888726
  WF centre and spread   58  (  3.446039,  5.963937,  1.677150 )     1.83886237
  WF centre and spread   59  (  3.446038,  6.069531,  1.677152 )     1.72939282
  WF centre and spread   60  (  3.446040,  5.868164,  1.677152 )     1.72938626
  WF centre and spread   61  ( -0.000000,  5.968728,  1.677152 )     1.66934212
  WF centre and spread   62  (  0.000001,  5.973386,  1.677150 )     1.83887588
  WF centre and spread   63  ( -0.000001,  5.963943,  1.677150 )     1.83884608
  WF centre and spread   64  ( -0.000001,  6.069537,  1.677152 )     1.72938446
  WF centre and spread   65  ( -0.000002,  5.868173,  1.677152 )     1.72937298
  WF centre and spread   66  (  1.723024,  2.984370,  1.677152 )     1.66940864
  WF centre and spread   67  (  1.723024,  2.989025,  1.677150 )     1.83895315
  WF centre and spread   68  (  1.723022,  2.979586,  1.677150 )     1.83892659
  WF centre and spread   69  (  1.723025,  3.085189,  1.677152 )     1.72946328
  WF centre and spread   70  (  1.723025,  2.883807,  1.677152 )     1.72944979
  WF centre and spread   71  ( -1.723025,  2.984370,  1.677152 )     1.66940866
  WF centre and spread   72  ( -1.723022,  2.989025,  1.677150 )     1.83895312
  WF centre and spread   73  ( -1.723023,  2.979586,  1.677150 )     1.83892660
  WF centre and spread   74  ( -1.723027,  3.085189,  1.677152 )     1.72946385
  WF centre and spread   75  ( -1.723030,  2.883807,  1.677152 )     1.72944922
  WF centre and spread   76  ( -3.446040,  5.968723,  1.677152 )     1.66934665
  WF centre and spread   77  ( -3.446034,  5.973383,  1.677150 )     1.83888725
  WF centre and spread   78  ( -3.446041,  5.963937,  1.677150 )     1.83886235
  WF centre and spread   79  ( -3.446041,  6.069531,  1.677152 )     1.72939325
  WF centre and spread   80  ( -3.446044,  5.868164,  1.677152 )     1.72938609
  WF centre and spread   81  (  1.723033,  0.994788, -0.076658 )     2.13341892
  WF centre and spread   82  (  1.723033,  0.983209,  0.039622 )     1.82829168
  WF centre and spread   83  (  1.723030,  1.006969,  0.039622 )     1.82829907
  WF centre and spread   84  (  1.723033,  0.994788,  3.430959 )     2.13338898
  WF centre and spread   85  (  1.723033,  0.983210,  3.314681 )     1.82825925
  WF centre and spread   86  (  1.723030,  1.006968,  3.314680 )     1.82826667
  WF centre and spread   87  (  5.169076,  0.994784, -0.076648 )     2.13338107
  WF centre and spread   88  (  5.169075,  0.983207,  0.039626 )     1.82826633
  WF centre and spread   89  (  5.169073,  1.006965,  0.039625 )     1.82827670
  WF centre and spread   90  (  5.169075,  0.994784,  3.430949 )     2.13335510
  WF centre and spread   91  (  5.169075,  0.983208,  3.314676 )     1.82823682
  WF centre and spread   92  (  5.169073,  1.006964,  3.314677 )     1.82824685
  WF centre and spread   93  (  8.615104,  0.994785, -0.076648 )     2.13338139
  WF centre and spread   94  (  8.615105,  0.983207,  0.039626 )     1.82826657
  WF centre and spread   95  (  8.615105,  1.006965,  0.039624 )     1.82827629
  WF centre and spread   96  (  8.615105,  0.994784,  3.430949 )     2.13335518
  WF centre and spread   97  (  8.615105,  0.983208,  3.314675 )     1.82823713
  WF centre and spread   98  (  8.615105,  1.006964,  3.314677 )     1.82824636
  WF centre and spread   99  ( 12.061147,  0.994788, -0.076658 )     2.13341907
  WF centre and spread  100  ( 12.061147,  0.983209,  0.039622 )     1.82829197
  WF centre and spread  101  ( 12.061147,  1.006969,  0.039622 )     1.82829888
  WF centre and spread  102  ( 12.061148,  0.994788,  3.430959 )     2.13338858
  WF centre and spread  103  ( 12.061148,  0.983210,  3.314680 )     1.82825954
  WF centre and spread  104  ( 12.061148,  1.006968,  3.314680 )     1.82826645
  WF centre and spread  105  ( 10.338129,  3.979151, -0.076648 )     2.13338140
  WF centre and spread  106  ( 10.338128,  3.967573,  0.039625 )     1.82826887
  WF centre and spread  107  ( 10.338129,  3.991330,  0.039626 )     1.82827442
  WF centre and spread  108  ( 10.338129,  3.979150,  3.430949 )     2.13335549
  WF centre and spread  109  ( 10.338129,  3.967573,  3.314677 )     1.82823904
  WF centre and spread  110  ( 10.338129,  3.991329,  3.314676 )     1.82824491
  WF centre and spread  111  (  8.615115,  6.963499, -0.076648 )     2.13338141
  WF centre and spread  112  (  8.615114,  6.951924,  0.039625 )     1.82826964
  WF centre and spread  113  (  8.615113,  6.975679,  0.039626 )     1.82827367
  WF centre and spread  114  (  8.615115,  6.963499,  3.430949 )     2.13335530
  WF centre and spread  115  (  8.615114,  6.951925,  3.314677 )     1.82823985
  WF centre and spread  116  (  8.615113,  6.975679,  3.314675 )     1.82824417
  WF centre and spread  117  (  6.892090,  9.947858, -0.076658 )     2.13341842
  WF centre and spread  118  (  6.892090,  9.936281,  0.039622 )     1.82829227
  WF centre and spread  119  (  6.892089,  9.960039,  0.039623 )     1.82829850
  WF centre and spread  120  (  6.892090,  9.947858,  3.430959 )     2.13338836
  WF centre and spread  121  (  6.892090,  9.936282,  3.314681 )     1.82825979
  WF centre and spread  122  (  6.892089,  9.960039,  3.314680 )     1.82826613
  WF centre and spread  123  (  3.446037,  9.947860, -0.076649 )     2.13338834
  WF centre and spread  124  (  3.446038,  9.936284,  0.039624 )     1.82827070
  WF centre and spread  125  (  3.446038,  9.960040,  0.039623 )     1.82827775
  WF centre and spread  126  (  3.446037,  9.947860,  3.430950 )     2.13336013
  WF centre and spread  127  (  3.446038,  9.936285,  3.314678 )     1.82823996
  WF centre and spread  128  (  3.446038,  9.960039,  3.314679 )     1.82824689
  WF centre and spread  129  (  0.000005,  9.947862, -0.076641 )     2.13336100
  WF centre and spread  130  (  0.000005,  9.936287,  0.039626 )     1.82825087
  WF centre and spread  131  (  0.000003,  9.960041,  0.039624 )     1.82825975
  WF centre and spread  132  (  0.000005,  9.947862,  3.430941 )     2.13333352
  WF centre and spread  133  (  0.000005,  9.936288,  3.314676 )     1.82822027
  WF centre and spread  134  (  0.000003,  9.960040,  3.314678 )     1.82822891
  WF centre and spread  135  ( -3.446028,  9.947860, -0.076649 )     2.13338850
  WF centre and spread  136  ( -3.446029,  9.936284,  0.039624 )     1.82827034
  WF centre and spread  137  ( -3.446031,  9.960040,  0.039623 )     1.82827789
  WF centre and spread  138  ( -3.446028,  9.947860,  3.430950 )     2.13336047
  WF centre and spread  139  ( -3.446029,  9.936285,  3.314678 )     1.82823959
  WF centre and spread  140  ( -3.446031,  9.960039,  3.314679 )     1.82824705
  WF centre and spread  141  (  6.892090,  3.979145, -0.076648 )     2.13336860
  WF centre and spread  142  (  6.892090,  3.967568,  0.039627 )     1.82826235
  WF centre and spread  143  (  6.892089,  3.991325,  0.039627 )     1.82826899
  WF centre and spread  144  (  6.892090,  3.979145,  3.430947 )     2.13334659
  WF centre and spread  145  (  6.892090,  3.967568,  3.314674 )     1.82823513
  WF centre and spread  146  (  6.892089,  3.991324,  3.314674 )     1.82824183
  WF centre and spread  147  (  5.169066,  6.963499, -0.076648 )     2.13338143
  WF centre and spread  148  (  5.169066,  6.951924,  0.039625 )     1.82826946
  WF centre and spread  149  (  5.169065,  6.975679,  0.039626 )     1.82827385
  WF centre and spread  150  (  5.169065,  6.963499,  3.430949 )     2.13335535
  WF centre and spread  151  (  5.169066,  6.951925,  3.314677 )     1.82823968
  WF centre and spread  152  (  5.169065,  6.975678,  3.314676 )     1.82824423
  WF centre and spread  153  (  1.723023,  6.963507, -0.076641 )     2.13336086
  WF centre and spread  154  (  1.723023,  6.951932,  0.039625 )     1.82825280
  WF centre and spread  155  (  1.723022,  6.975685,  0.039626 )     1.82825799
  WF centre and spread  156  (  1.723023,  6.963507,  3.430941 )     2.13333337
  WF centre and spread  157  (  1.723023,  6.951933,  3.314677 )     1.82822202
  WF centre and spread  158  (  1.723022,  6.975684,  3.314676 )     1.82822739
  WF centre and spread  159  (  3.446051,  3.979151, -0.076648 )     2.13338130
  WF centre and spread  160  (  3.446052,  3.967573,  0.039625 )     1.82826879
  WF centre and spread  161  (  3.446049,  3.991330,  0.039626 )     1.82827460
  WF centre and spread  162  (  3.446051,  3.979151,  3.430949 )     2.13335523
  WF centre and spread  163  (  3.446051,  3.967573,  3.314677 )     1.82823890
  WF centre and spread  164  (  3.446048,  3.991329,  3.314676 )     1.82824503
  WF centre and spread  165  (  0.000005,  3.979157, -0.076649 )     2.13338860
  WF centre and spread  166  (  0.000005,  3.967578,  0.039623 )     1.82827165
  WF centre and spread  167  (  0.000003,  3.991335,  0.039625 )     1.82827695
  WF centre and spread  168  (  0.000005,  3.979156,  3.430950 )     2.13336054
  WF centre and spread  169  (  0.000005,  3.967578,  3.314679 )     1.82824069
  WF centre and spread  170  (  0.000003,  3.991334,  3.314677 )     1.82824634
  WF centre and spread  171  ( -1.723013,  6.963507, -0.076641 )     2.13336045
  WF centre and spread  172  ( -1.723014,  6.951932,  0.039625 )     1.82825297
  WF centre and spread  173  ( -1.723015,  6.975685,  0.039626 )     1.82825812
  WF centre and spread  174  ( -1.723013,  6.963507,  3.430941 )     2.13333298
  WF centre and spread  175  ( -1.723014,  6.951933,  3.314677 )     1.82822218
  WF centre and spread  176  ( -1.723015,  6.975684,  3.314676 )     1.82822754
  Sum of centres and spreads (620.288041,883.391721,295.178551 )   326.17295704
 
      0     0.326E+03     0.0000000000      326.1729569069       7.28  <-- CONV
        O_D=      0.0076139 O_OD=     24.9683920 O_TOT=    326.1729569 <-- SPRD
 ------------------------------------------------------------------------------
 Cycle:      1
  LINE --> Iteration                     :           1
  LINE --> Spread at initial point       :   326.172956906857     
  LINE --> Spread at trial step          :   325.139689700233     
  LINE --> Slope along search direction  : -0.675770606876531     
  LINE --> ||SD gradient||^2             :   57.7508862993464     
  LINE --> Trial step length             :   2.00000000000000     
  LINE --> Optimal parabolic step length :   4.24647059917258     
  LINE --> Spread at predicted minimum   :   324.738136899914     
  LINE --> CG coefficient                :  0.000000000000000E+000
  WF centre and spread    1  ( -0.000000, -0.000034,  1.677152 )     1.67253156
  WF centre and spread    2  ( -0.000000,  0.005850,  1.677151 )     1.86698124
  WF centre and spread    3  ( -0.000001, -0.006044,  1.677151 )     1.86655239
  WF centre and spread    4  ( -0.000001,  0.115530,  1.677152 )     1.73771937
  WF centre and spread    5  ( -0.000002, -0.114950,  1.677152 )     1.73772703
  WF centre and spread    6  (  3.446053, -0.000035,  1.677152 )     1.67246945
  WF centre and spread    7  (  3.446055,  0.005850,  1.677150 )     1.86691357
  WF centre and spread    8  (  3.446047, -0.006051,  1.677150 )     1.86649416
  WF centre and spread    9  (  3.446056,  0.115521,  1.677152 )     1.73764790
  WF centre and spread   10  (  3.446056, -0.114944,  1.677152 )     1.73766019
  WF centre and spread   11  ( -0.000000, 11.937405,  1.677152 )     1.67241000
  WF centre and spread   12  ( -0.000000, 11.943292,  1.677150 )     1.86684820
  WF centre and spread   13  ( -0.000001, 11.931385,  1.677150 )     1.86643975
  WF centre and spread   14  ( -0.000001,-11.821929,  1.677152 )     1.73758153
[...]
  WF centre and spread   77  ( -3.446033,  5.976209,  1.677150 )     1.88398853
  WF centre and spread   78  ( -3.446041,  5.961028,  1.677151 )     1.88333884
  WF centre and spread   79  (  3.446383, -5.838861,  1.677151 )     1.73668748
  WF centre and spread   80  ( -3.447221,  5.846498,  1.677151 )     1.74938663
  WF centre and spread   81  (  1.723014,  0.992086, -0.085534 )     2.05931449
  WF centre and spread   82  (  1.723033,  0.979291,  0.037200 )     1.80063014
  WF centre and spread   83  (  1.723022,  1.012989,  0.037294 )     1.80089380
  WF centre and spread   84  (  1.723013,  0.992085,  3.439837 )     2.05931405
  WF centre and spread   85  (  1.723033,  0.979291,  3.317103 )     1.80062909
  WF centre and spread   86  (  1.723022,  1.012989,  3.317009 )     1.80089283
  WF centre and spread   87  (  5.169056,  0.992086, -0.085524 )     2.05926554
  WF centre and spread   88  (  5.169075,  0.979290,  0.037205 )     1.80059888
  WF centre and spread   89  (  5.169065,  1.012988,  0.037297 )     1.80087812
  WF centre and spread   90  (  5.169056,  0.992086,  3.439826 )     2.05926758
  WF centre and spread   91  (  5.169075,  0.979290,  3.317097 )     1.80059987
  WF centre and spread   92  (  5.169064,  1.012988,  3.317005 )     1.80087884
  WF centre and spread   93  ( -5.169056,  0.992087, -0.085524 )     2.05926580
  WF centre and spread   94  ( -5.169076,  0.979290,  0.037205 )     1.80059913
  WF centre and spread   95  ( -5.169064,  1.012988,  0.037297 )     1.80087766
  WF centre and spread   96  ( -5.169056,  0.992086,  3.439826 )     2.05926761
  WF centre and spread   97  ( -5.169075,  0.979290,  3.317097 )     1.80060011
  WF centre and spread   98  ( -5.169063,  1.012988,  3.317006 )     1.80087831
  WF centre and spread   99  ( -1.723014,  0.992086, -0.085534 )     2.05931467
  WF centre and spread  100  ( -1.723033,  0.979291,  0.037200 )     1.80063041
  WF centre and spread  101  ( -1.723021,  1.012989,  0.037294 )     1.80089360
  WF centre and spread  102  ( -1.723013,  0.992086,  3.439837 )     2.05931371
  WF centre and spread  103  ( -1.723033,  0.979291,  3.317103 )     1.80062938
  WF centre and spread  104  ( -1.723021,  1.012989,  3.317010 )     1.80089256
  WF centre and spread  105  ( -3.446035,  3.976450, -0.085524 )     2.05927271
  WF centre and spread  106  ( -3.446051,  3.963655,  0.037203 )     1.80060561
  WF centre and spread  107  ( -3.446041,  3.997351,  0.037298 )     1.80087117
  WF centre and spread  108  ( -3.446034,  3.976450,  3.439826 )     2.05927482
  WF centre and spread  109  ( -3.446051,  3.963655,  3.317099 )     1.80060622
  WF centre and spread  110  ( -3.446040,  3.997351,  3.317004 )     1.80087222
  WF centre and spread  111  (  1.723022, -4.976643, -0.085524 )     2.05926897
  WF centre and spread  112  (  1.723025, -4.989436,  0.037204 )     1.80060344
  WF centre and spread  113  (  1.723024, -4.955741,  0.037298 )     1.80087324
  WF centre and spread  114  (  1.723022, -4.976642,  3.439826 )     2.05927088
  WF centre and spread  115  (  1.723025, -4.989436,  3.317098 )     1.80060425
  WF centre and spread  116  (  1.723024, -4.955741,  3.317004 )     1.80087414
  WF centre and spread  117  (  0.000000, -1.992286, -0.085533 )     2.05931049
  WF centre and spread  118  ( -0.000000, -2.005079,  0.037200 )     1.80062798
  WF centre and spread  119  (  0.000000, -1.971383,  0.037294 )     1.80089585
  WF centre and spread  120  (  0.000000, -1.992286,  3.439836 )     2.05930992
  WF centre and spread  121  ( -0.000000, -2.005079,  3.317103 )     1.80062690
  WF centre and spread  122  (  0.000000, -1.971382,  3.317009 )     1.80089487
  WF centre and spread  123  ( -3.446035, -1.992283, -0.085525 )     2.05927784
  WF centre and spread  124  ( -3.446058, -2.005076,  0.037203 )     1.80060601
  WF centre and spread  125  ( -3.446044, -1.971381,  0.037295 )     1.80087714
  WF centre and spread  126  ( -3.446035, -1.992282,  3.439828 )     2.05927851
  WF centre and spread  127  ( -3.446058, -2.005076,  3.317100 )     1.80060624
  WF centre and spread  128  ( -3.446044, -1.971381,  3.317007 )     1.80087723
  WF centre and spread  129  (  0.000000,  9.945163, -0.085517 )     2.05924813
  WF centre and spread  130  ( -0.000000,  9.932370,  0.037205 )     1.80058554
  WF centre and spread  131  (  0.000001,  9.966062,  0.037297 )     1.80086118
  WF centre and spread  132  (  0.000000,  9.945162,  3.439819 )     2.05924924
  WF centre and spread  133  ( -0.000000,  9.932370,  3.317098 )     1.80058576
  WF centre and spread  134  (  0.000001,  9.966062,  3.317006 )     1.80086117
  WF centre and spread  135  (  3.446035, -1.992283, -0.085525 )     2.05927811
  WF centre and spread  136  (  3.446058, -2.005076,  0.037202 )     1.80060570
  WF centre and spread  137  (  3.446045, -1.971381,  0.037295 )     1.80087719
  WF centre and spread  138  (  3.446035, -1.992283,  3.439828 )     2.05927895
  WF centre and spread  139  (  3.446057, -2.005076,  3.317100 )     1.80060591
  WF centre and spread  140  (  3.446045, -1.971381,  3.317007 )     1.80087733
  WF centre and spread  141  ( -0.000000, -7.960994, -0.085522 )     2.05925161
  WF centre and spread  142  (  0.000000, -7.973792,  0.037206 )     1.80059390
  WF centre and spread  143  (  0.000001, -7.940094,  0.037299 )     1.80087117
  WF centre and spread  144  (  0.000000, -7.960994,  3.439824 )     2.05925643
  WF centre and spread  145  (  0.000000, -7.973792,  3.317095 )     1.80059653
  WF centre and spread  146  (  0.000001, -7.940093,  3.317002 )     1.80087384
  WF centre and spread  147  ( -1.723021, -4.976643, -0.085524 )     2.05926896
  WF centre and spread  148  ( -1.723025, -4.989437,  0.037204 )     1.80060322
  WF centre and spread  149  ( -1.723023, -4.955742,  0.037298 )     1.80087344
  WF centre and spread  150  ( -1.723021, -4.976642,  3.439826 )     2.05927090
  WF centre and spread  151  ( -1.723025, -4.989436,  3.317098 )     1.80060399
  WF centre and spread  152  ( -1.723023, -4.955741,  3.317004 )     1.80087433
  WF centre and spread  153  (  1.723021,  6.960806, -0.085517 )     2.05925444
  WF centre and spread  154  (  1.723018,  6.948014,  0.037203 )     1.80059147
  WF centre and spread  155  (  1.723020,  6.981705,  0.037298 )     1.80085491
  WF centre and spread  156  (  1.723021,  6.960806,  3.439820 )     2.05925556
  WF centre and spread  157  (  1.723018,  6.948014,  3.317099 )     1.80059153
  WF centre and spread  158  (  1.723020,  6.981705,  3.317004 )     1.80085515
  WF centre and spread  159  (  3.446035,  3.976450, -0.085524 )     2.05927268
  WF centre and spread  160  (  3.446051,  3.963655,  0.037204 )     1.80060545
  WF centre and spread  161  (  3.446042,  3.997351,  0.037298 )     1.80087145
  WF centre and spread  162  (  3.446034,  3.976450,  3.439826 )     2.05927462
  WF centre and spread  163  (  3.446051,  3.963654,  3.317099 )     1.80060606
  WF centre and spread  164  (  3.446041,  3.997351,  3.317004 )     1.80087245
  WF centre and spread  165  ( -0.000000,  3.976453, -0.085526 )     2.05928855
  WF centre and spread  166  ( -0.000000,  3.963659,  0.037201 )     1.80061366
  WF centre and spread  167  (  0.000000,  3.997354,  0.037296 )     1.80086951
  WF centre and spread  168  ( -0.000000,  3.976453,  3.439829 )     2.05928935
  WF centre and spread  169  ( -0.000000,  3.963659,  3.317102 )     1.80061367
  WF centre and spread  170  (  0.000000,  3.997353,  3.317006 )     1.80086987
  WF centre and spread  171  ( -1.723021,  6.960806, -0.085517 )     2.05925419
  WF centre and spread  172  ( -1.723018,  6.948014,  0.037203 )     1.80059176
  WF centre and spread  173  ( -1.723019,  6.981704,  0.037298 )     1.80085498
  WF centre and spread  174  ( -1.723021,  6.960806,  3.439820 )     2.05925532
  WF centre and spread  175  ( -1.723018,  6.948014,  3.317099 )     1.80059176
  WF centre and spread  176  ( -1.723019,  6.981705,  3.317004 )     1.80085525
  Sum of centres and spreads (  0.000001,238.804541,295.178600 )   324.24411115
 
         Spreads (Ang^2)       Omega I      =   301.196951002
        ================       Omega D      =     0.009140852
                               Omega OD     =    23.038019466
    Final Spread (Ang^2)       Omega Total  =   324.244111320
 ------------------------------------------------------------------------------
 Final centres (translated to home cell for writing xyz file)
  WF centre    1  (  0.000007, -0.003936,  1.677152 )
  WF centre    2  ( -0.000000,  0.007482,  1.677151 )
  WF centre    3  (  0.000000, -0.007694,  1.677151 )
  WF centre    4  (  0.000003,  0.129884,  1.677152 )
  WF centre    5  ( -0.000011, -0.122252,  1.677152 )
  WF centre    6  (  3.444683, -0.003946,  1.677152 )
  WF centre    7  (  3.446057,  0.007482,  1.677151 )
  WF centre    8  (  3.446046, -0.007702,  1.677151 )
  WF centre    9  (  3.445454,  0.129866,  1.677151 )
  WF centre   10  (  3.448155, -0.122226,  1.677152 )
  WF centre   11  (  0.000005, 11.933508,  1.677151 )
  WF centre   12  ( -0.000000, 11.944925,  1.677150 )
  WF centre   13  (  0.000000, 11.929733,  1.677151 )
  WF centre   14  (  0.000002,-11.807586,  1.677151 )
  WF centre   15  ( -0.000008, 11.815212,  1.677151 )
  WF centre   16  ( -3.444666, -0.003947,  1.677152 )
  WF centre   17  ( -3.446057,  0.007482,  1.677151 )
  WF centre   18  ( -3.446046, -0.007702,  1.677151 )
  WF centre   19  ( -3.445446,  0.129866,  1.677151 )
  WF centre   20  ( -3.448183, -0.122226,  1.677152 )
  WF centre   21  ( -5.167977,  2.980423,  1.677151 )
  WF centre   22  ( -5.169067,  2.991847,  1.677150 )
  WF centre   23  ( -5.169065,  2.976663,  1.677150 )
  WF centre   24  (  1.723495, -8.823217,  1.677151 )
  WF centre   25  ( -5.170744,  2.862146,  1.677151 )
  WF centre   26  (  0.000003, -5.972656,  1.677151 )
  WF centre   27  ( -0.000000, -5.961237,  1.677150 )
  WF centre   28  (  0.000000, -5.976421,  1.677150 )
  WF centre   29  (  0.000001, -5.838868,  1.677151 )
  WF centre   30  ( -0.000005, -6.090955,  1.677151 )
  WF centre   31  ( -1.722713, -2.988300,  1.677152 )
  WF centre   32  ( -1.723034, -2.976880,  1.677151 )
  WF centre   33  ( -1.723024, -2.992065,  1.677151 )
  WF centre   34  ( -1.722891, -2.854505,  1.677151 )
  WF centre   35  ( -1.723513, -3.106610,  1.677152 )
  WF centre   36  (  1.723288,  8.949148,  1.677151 )
  WF centre   37  (  1.723009,  8.960566,  1.677151 )
  WF centre   38  (  1.723019,  8.945376,  1.677151 )
  WF centre   39  ( -5.168951, -2.854512,  1.677151 )
  WF centre   40  (  1.722594,  8.830850,  1.677152 )
  WF centre   41  ( -1.723297,  8.949148,  1.677151 )
  WF centre   42  ( -1.723009,  8.960566,  1.677151 )
  WF centre   43  ( -1.723019,  8.945376,  1.677151 )
  WF centre   44  (  5.168948, -2.854512,  1.677151 )
  WF centre   45  ( -1.722582,  8.830850,  1.677152 )
  WF centre   46  (  1.722732, -2.988300,  1.677152 )
  WF centre   47  (  1.723034, -2.976880,  1.677151 )
  WF centre   48  (  1.723024, -2.992065,  1.677150 )
  WF centre   49  (  1.722899, -2.854505,  1.677151 )
  WF centre   50  (  1.723482, -3.106610,  1.677152 )
  WF centre   51  (  5.167977,  2.980423,  1.677151 )
  WF centre   52  (  5.169066,  2.991847,  1.677150 )
  WF centre   53  (  5.169065,  2.976663,  1.677150 )
  WF centre   54  ( -1.723495, -8.823217,  1.677151 )
  WF centre   55  (  5.170742,  2.862146,  1.677151 )
  WF centre   56  (  3.445269,  5.964787,  1.677151 )
  WF centre   57  (  3.446032,  5.976209,  1.677151 )
  WF centre   58  (  3.446041,  5.961028,  1.677150 )
  WF centre   59  ( -3.446384, -5.838862,  1.677151 )
  WF centre   60  (  3.447222,  5.846498,  1.677151 )
  WF centre   61  ( -0.000010,  5.964795,  1.677151 )
  WF centre   62  ( -0.000000,  5.976212,  1.677151 )
  WF centre   63  (  0.000000,  5.961034,  1.677151 )
  WF centre   64  ( -0.000005,  6.098588,  1.677151 )
  WF centre   65  (  0.000015,  5.846500,  1.677151 )
  WF centre   66  (  1.721969,  2.980427,  1.677152 )
  WF centre   67  (  1.723023,  2.991850,  1.677150 )
  WF centre   68  (  1.723022,  2.976677,  1.677151 )
  WF centre   69  (  1.722563,  3.114246,  1.677151 )
  WF centre   70  (  1.724645,  2.862141,  1.677152 )
  WF centre   71  ( -1.721960,  2.980427,  1.677152 )
  WF centre   72  ( -1.723023,  2.991850,  1.677151 )
  WF centre   73  ( -1.723022,  2.976677,  1.677151 )
  WF centre   74  ( -1.722559,  3.114246,  1.677151 )
  WF centre   75  ( -1.724659,  2.862141,  1.677152 )
  WF centre   76  ( -3.445270,  5.964787,  1.677151 )
  WF centre   77  ( -3.446033,  5.976209,  1.677150 )
  WF centre   78  ( -3.446041,  5.961028,  1.677151 )
  WF centre   79  (  3.446383, -5.838861,  1.677151 )
  WF centre   80  ( -3.447221,  5.846498,  1.677151 )
  WF centre   81  (  1.723014,  0.992086, -0.085534 )
  WF centre   82  (  1.723033,  0.979291,  0.037200 )
  WF centre   83  (  1.723022,  1.012989,  0.037294 )
  WF centre   84  (  1.723013,  0.992085,  3.439837 )
  WF centre   85  (  1.723033,  0.979291,  3.317103 )
  WF centre   86  (  1.723022,  1.012989,  3.317009 )
  WF centre   87  (  5.169056,  0.992086, -0.085524 )
  WF centre   88  (  5.169075,  0.979290,  0.037205 )
  WF centre   89  (  5.169065,  1.012988,  0.037297 )
  WF centre   90  (  5.169056,  0.992086,  3.439826 )
  WF centre   91  (  5.169075,  0.979290,  3.317097 )
  WF centre   92  (  5.169064,  1.012988,  3.317005 )
  WF centre   93  ( -5.169056,  0.992087, -0.085524 )
  WF centre   94  ( -5.169076,  0.979290,  0.037205 )
  WF centre   95  ( -5.169064,  1.012988,  0.037297 )
  WF centre   96  ( -5.169056,  0.992086,  3.439826 )
  WF centre   97  ( -5.169075,  0.979290,  3.317097 )
  WF centre   98  ( -5.169063,  1.012988,  3.317006 )
  WF centre   99  ( -1.723014,  0.992086, -0.085534 )
  WF centre  100  ( -1.723033,  0.979291,  0.037200 )
  WF centre  101  ( -1.723021,  1.012989,  0.037294 )
  WF centre  102  ( -1.723013,  0.992086,  3.439837 )
  WF centre  103  ( -1.723033,  0.979291,  3.317103 )
  WF centre  104  ( -1.723021,  1.012989,  3.317010 )
  WF centre  105  ( -3.446035,  3.976450, -0.085524 )
  WF centre  106  ( -3.446051,  3.963655,  0.037203 )
  WF centre  107  ( -3.446041,  3.997351,  0.037298 )
  WF centre  108  ( -3.446034,  3.976450,  3.439826 )
  WF centre  109  ( -3.446051,  3.963655,  3.317099 )
  WF centre  110  ( -3.446040,  3.997351,  3.317004 )
  WF centre  111  (  1.723022, -4.976643, -0.085524 )
  WF centre  112  (  1.723025, -4.989436,  0.037204 )
  WF centre  113  (  1.723024, -4.955741,  0.037298 )
  WF centre  114  (  1.723022, -4.976642,  3.439826 )
  WF centre  115  (  1.723025, -4.989436,  3.317098 )
  WF centre  116  (  1.723024, -4.955741,  3.317004 )
  WF centre  117  (  0.000000, -1.992286, -0.085533 )
  WF centre  118  ( -0.000000, -2.005079,  0.037200 )
  WF centre  119  (  0.000000, -1.971383,  0.037294 )
  WF centre  120  (  0.000000, -1.992286,  3.439836 )
  WF centre  121  ( -0.000000, -2.005079,  3.317103 )
  WF centre  122  (  0.000000, -1.971382,  3.317009 )
  WF centre  123  ( -3.446035, -1.992283, -0.085525 )
  WF centre  124  ( -3.446058, -2.005076,  0.037203 )
  WF centre  125  ( -3.446044, -1.971381,  0.037295 )
  WF centre  126  ( -3.446035, -1.992282,  3.439828 )
  WF centre  127  ( -3.446058, -2.005076,  3.317100 )
  WF centre  128  ( -3.446044, -1.971381,  3.317007 )
  WF centre  129  (  0.000000,  9.945163, -0.085517 )
  WF centre  130  ( -0.000000,  9.932370,  0.037205 )
  WF centre  131  (  0.000001,  9.966062,  0.037297 )
  WF centre  132  (  0.000000,  9.945162,  3.439819 )
  WF centre  133  ( -0.000000,  9.932370,  3.317098 )
  WF centre  134  (  0.000001,  9.966062,  3.317006 )
  WF centre  135  (  3.446035, -1.992283, -0.085525 )
  WF centre  136  (  3.446058, -2.005076,  0.037202 )
  WF centre  137  (  3.446045, -1.971381,  0.037295 )
  WF centre  138  (  3.446035, -1.992283,  3.439828 )
  WF centre  139  (  3.446057, -2.005076,  3.317100 )
  WF centre  140  (  3.446045, -1.971381,  3.317007 )
  WF centre  141  ( -0.000000, -7.960994, -0.085522 )
  WF centre  142  (  0.000000, -7.973792,  0.037206 )
  WF centre  143  (  0.000001, -7.940094,  0.037299 )
  WF centre  144  (  0.000000, -7.960994,  3.439824 )
  WF centre  145  (  0.000000, -7.973792,  3.317095 )
  WF centre  146  (  0.000001, -7.940093,  3.317002 )
  WF centre  147  ( -1.723021, -4.976643, -0.085524 )
  WF centre  148  ( -1.723025, -4.989437,  0.037204 )
  WF centre  149  ( -1.723023, -4.955742,  0.037298 )
  WF centre  150  ( -1.723021, -4.976642,  3.439826 )
  WF centre  151  ( -1.723025, -4.989436,  3.317098 )
  WF centre  152  ( -1.723023, -4.955741,  3.317004 )
  WF centre  153  (  1.723021,  6.960806, -0.085517 )
  WF centre  154  (  1.723018,  6.948014,  0.037203 )
  WF centre  155  (  1.723020,  6.981705,  0.037298 )
  WF centre  156  (  1.723021,  6.960806,  3.439820 )
  WF centre  157  (  1.723018,  6.948014,  3.317099 )
  WF centre  158  (  1.723020,  6.981705,  3.317004 )
  WF centre  159  (  3.446035,  3.976450, -0.085524 )
  WF centre  160  (  3.446051,  3.963655,  0.037204 )
  WF centre  161  (  3.446042,  3.997351,  0.037298 )
  WF centre  162  (  3.446034,  3.976450,  3.439826 )
  WF centre  163  (  3.446051,  3.963654,  3.317099 )
  WF centre  164  (  3.446041,  3.997351,  3.317004 )
  WF centre  165  ( -0.000000,  3.976453, -0.085526 )
  WF centre  166  ( -0.000000,  3.963659,  0.037201 )
  WF centre  167  (  0.000000,  3.997354,  0.037296 )
  WF centre  168  ( -0.000000,  3.976453,  3.439829 )
  WF centre  169  ( -0.000000,  3.963659,  3.317102 )
  WF centre  170  (  0.000000,  3.997353,  3.317006 )
  WF centre  171  ( -1.723021,  6.960806, -0.085517 )
  WF centre  172  ( -1.723018,  6.948014,  0.037203 )
  WF centre  173  ( -1.723019,  6.981704,  0.037298 )
  WF centre  174  ( -1.723021,  6.960806,  3.439820 )
  WF centre  175  ( -1.723018,  6.948014,  3.317099 )
  WF centre  176  ( -1.723019,  6.981705,  3.317004 )
 ------------------------------------------------------------------------------
 

 Wannier centres written to file 1Fe_initialconf.up_centres.xyz
  
  Omega Invariant:   1-s^2 =   301.196951002 (Ang^2)
                   -2log s =   339.792397180 (Ang^2)
                    acos^2 =   325.508464142 (Ang^2)
 Time for wannierise           30.993 (sec)

 Writing checkpoint file 1Fe_initialconf.up.chk... done

 *---------------------------------------------------------------------------*
 |                               PLOTTING                                    |
 *---------------------------------------------------------------------------*
 
    1 lattice points in Wigner-Seitz supercell:

      vector   0   0   0   degeneracy:  1
  tot =        1.000
  mp_grid product =            1
 
 Calculating interpolated band-structure
 
 Time to calculate interpolated band structure       3.156 (sec)
 
 Time for plotting              3.340 (sec)
 Total Execution Time          43.632 (sec)

 *===========================================================================*
 |                             TIMING INFORMATION                            |
 *===========================================================================*
 |    Tag                                                Ncalls      Time (s)|
 |---------------------------------------------------------------------------|
 |kmesh: get                                        :         1         0.012|
 |overlap: allocate                                 :         1         0.001|
 |overlap: read                                     :         1         1.807|
 |dis: main                                         :         1         7.450|
 |wann: main                                        :         1        30.993|
 |plot: main                                        :         1         3.340|
 *---------------------------------------------------------------------------*
 
 All done: wannier90 exiting
