 written on  8Nov2023 at 18:51:46 
         176
           1
    1
    0    0    0    1    1   -0.924580    0.000000
    0    0    0    2    1    0.000000    0.000000
    0    0    0    3    1    0.000001   -0.000000
    0    0    0    4    1   -0.035654    0.000000
    0    0    0    5    1   -0.000087   -0.000000
    0    0    0    6    1   -0.574099   -0.000000
    0    0    0    7    1   -0.000001    0.000000
    0    0    0    8    1    0.000000    0.000000
    0    0    0    9    1    0.354945    0.000000
    0    0    0   10    1    0.108294    0.000000
    0    0    0   11    1    0.085915   -0.000000
    0    0    0   12    1   -0.000000   -0.000000
    0    0    0   13    1    0.000000   -0.000000
    0    0    0   14    1   -0.062289    0.000000
    0    0    0   15    1    0.000041   -0.000000
    0    0    0   16    1   -0.574108    0.000000
    0    0    0   17    1    0.000001    0.000000
    0    0    0   18    1    0.000000   -0.000000
    0    0    0   19    1    0.354969   -0.000000
    0    0    0   20    1   -0.108335    0.000000
    0    0    0   21    1    0.022896    0.000000
    0    0    0   22    1    0.000001   -0.000000
    0    0    0   23    1   -0.000001   -0.000000
    0    0    0   24    1   -0.007663    0.000000
    0    0    0   25    1    0.034478    0.000000
    0    0    0   26    1    0.013347   -0.000000
    0    0    0   27    1    0.000000    0.000000
    0    0    0   28    1    0.000001    0.000000
    0    0    0   29    1    0.021578    0.000000
    0    0    0   30    1   -0.000004   -0.000000
    0    0    0   31    1   -0.110960   -0.000000
    0    0    0   32    1   -0.000001   -0.000000
    0    0    0   33    1    0.000001    0.000000
    0    0    0   34    1   -0.365968   -0.000000
    0    0    0   35    1    0.201523    0.000000
    0    0    0   36    1    0.020677    0.000000
    0    0    0   37    1    0.000001   -0.000000
    0    0    0   38    1    0.000000    0.000000
    0    0    0   39    1    0.011414   -0.000000
    0    0    0   40    1   -0.007699   -0.000000
    0    0    0   41    1    0.020675   -0.000000
    0    0    0   42    1   -0.000001   -0.000000
    0    0    0   43    1    0.000000    0.000000
    0    0    0   44    1    0.011412   -0.000000
    0    0    0   45    1    0.007692   -0.000000
    0    0    0   46    1   -0.111052    0.000000
    0    0    0   47    1    0.000001    0.000000
    0    0    0   48    1    0.000001   -0.000000
    0    0    0   49    1   -0.365892    0.000000
    0    0    0   50    1   -0.201495    0.000000
    0    0    0   51    1    0.022888    0.000000
    0    0    0   52    1   -0.000001   -0.000000
    0    0    0   53    1   -0.000001   -0.000000
    0    0    0   54    1   -0.007664   -0.000000
    0    0    0   55    1   -0.034489    0.000000
    0    0    0   56    1    0.016124    0.000000
    0    0    0   57    1    0.000000   -0.000000
    0    0    0   58    1   -0.000000   -0.000000
    0    0    0   59    1    0.027093    0.000000
    0    0    0   60    1   -0.043405   -0.000000
    0    0    0   61    1    0.013340   -0.000000
    0    0    0   62    1    0.000000   -0.000000
    0    0    0   63    1   -0.000001   -0.000000
    0    0    0   64    1   -0.016281    0.000000
    0    0    0   65    1   -0.000007    0.000000
    0    0    0   66    1   -0.129810    0.000000
    0    0    0   67    1    0.000000    0.000000
    0    0    0   68    1    0.000001    0.000000
    0    0    0   69    1   -0.160826   -0.000000
    0    0    0   70    1    0.161500    0.000000
    0    0    0   71    1   -0.129790    0.000000
    0    0    0   72    1   -0.000000    0.000000
    0    0    0   73    1    0.000001   -0.000000
    0    0    0   74    1   -0.160805   -0.000000
    0    0    0   75    1   -0.161509   -0.000000
    0    0    0   76    1    0.016164    0.000000
    0    0    0   77    1   -0.000000    0.000000
    0    0    0   78    1   -0.000000    0.000000
    0    0    0   79    1    0.027078   -0.000000
    0    0    0   80    1    0.043394    0.000000
    0    0    0   81    1    0.664116   -0.000000
    0    0    0   82    1    0.522350   -0.000000
    0    0    0   83    1   -0.025261   -0.000000
    0    0    0   84    1   -0.664115    0.000000
    0    0    0   85    1    0.522354   -0.000000
    0    0    0   86    1   -0.025261    0.000000
    0    0    0   87    1   -0.053540    0.000000
    0    0    0   88    1    0.024341    0.000000
    0    0    0   89    1    0.017820   -0.000000
    0    0    0   90    1    0.053554    0.000000
    0    0    0   91    1    0.024342    0.000000
    0    0    0   92    1    0.017820   -0.000000
    0    0    0   93    1   -0.053536   -0.000000
    0    0    0   94    1   -0.024343   -0.000000
    0    0    0   95    1    0.017822   -0.000000
    0    0    0   96    1    0.053551   -0.000000
    0    0    0   97    1   -0.024344   -0.000000
    0    0    0   98    1    0.017823   -0.000000
    0    0    0   99    1    0.664066   -0.000000
    0    0    0  100    1   -0.522402   -0.000000
    0    0    0  101    1   -0.025276    0.000000
    0    0    0  102    1   -0.664068   -0.000000
    0    0    0  103    1   -0.522403    0.000000
    0    0    0  104    1   -0.025276   -0.000000
    0    0    0  105    1   -0.024242   -0.000000
    0    0    0  106    1   -0.007821    0.000000
    0    0    0  107    1    0.006808    0.000000
    0    0    0  108    1    0.024259    0.000000
    0    0    0  109    1   -0.007823    0.000000
    0    0    0  110    1    0.006809    0.000000
    0    0    0  111    1   -0.031551    0.000000
    0    0    0  112    1   -0.001426    0.000000
    0    0    0  113    1   -0.013062   -0.000000
    0    0    0  114    1    0.031571   -0.000000
    0    0    0  115    1   -0.001426    0.000000
    0    0    0  116    1   -0.013064   -0.000000
    0    0    0  117    1    0.343620    0.000000
    0    0    0  118    1   -0.000040    0.000000
    0    0    0  119    1   -0.666754    0.000000
    0    0    0  120    1   -0.343625   -0.000000
    0    0    0  121    1   -0.000040   -0.000000
    0    0    0  122    1   -0.666750   -0.000000
    0    0    0  123    1    0.071036   -0.000000
    0    0    0  124    1    0.098518    0.000000
    0    0    0  125    1    0.055310    0.000000
    0    0    0  126    1   -0.071026    0.000000
    0    0    0  127    1    0.098517   -0.000000
    0    0    0  128    1    0.055309    0.000000
    0    0    0  129    1   -0.011827    0.000000
    0    0    0  130    1   -0.000001    0.000000
    0    0    0  131    1   -0.010069    0.000000
    0    0    0  132    1    0.011856   -0.000000
    0    0    0  133    1   -0.000001    0.000000
    0    0    0  134    1   -0.010071    0.000000
    0    0    0  135    1    0.071029   -0.000000
    0    0    0  136    1   -0.098503   -0.000000
    0    0    0  137    1    0.055271    0.000000
    0    0    0  138    1   -0.071019    0.000000
    0    0    0  139    1   -0.098502   -0.000000
    0    0    0  140    1    0.055270    0.000000
    0    0    0  141    1    0.024486   -0.000000
    0    0    0  142    1    0.000000   -0.000000
    0    0    0  143    1   -0.000510    0.000000
    0    0    0  144    1   -0.024452   -0.000000
    0    0    0  145    1    0.000000   -0.000000
    0    0    0  146    1   -0.000509    0.000000
    0    0    0  147    1   -0.031555    0.000000
    0    0    0  148    1    0.001425   -0.000000
    0    0    0  149    1   -0.013093   -0.000000
    0    0    0  150    1    0.031575   -0.000000
    0    0    0  151    1    0.001425   -0.000000
    0    0    0  152    1   -0.013095   -0.000000
    0    0    0  153    1   -0.002953    0.000000
    0    0    0  154    1   -0.011547    0.000000
    0    0    0  155    1   -0.000901   -0.000000
    0    0    0  156    1    0.002979   -0.000000
    0    0    0  157    1   -0.011548    0.000000
    0    0    0  158    1   -0.000900   -0.000000
    0    0    0  159    1   -0.024241    0.000000
    0    0    0  160    1    0.007814    0.000000
    0    0    0  161    1    0.006807    0.000000
    0    0    0  162    1    0.024258   -0.000000
    0    0    0  163    1    0.007816    0.000000
    0    0    0  164    1    0.006808    0.000000
    0    0    0  165    1   -0.003941   -0.000000
    0    0    0  166    1   -0.000000   -0.000000
    0    0    0  167    1   -0.030450    0.000000
    0    0    0  168    1    0.003945   -0.000000
    0    0    0  169    1   -0.000000   -0.000000
    0    0    0  170    1   -0.030449    0.000000
    0    0    0  171    1   -0.002952    0.000000
    0    0    0  172    1    0.011548   -0.000000
    0    0    0  173    1   -0.000902   -0.000000
    0    0    0  174    1    0.002978   -0.000000
    0    0    0  175    1    0.011549   -0.000000
    0    0    0  176    1   -0.000901   -0.000000
    0    0    0    1    2    0.000000   -0.000000
    0    0    0    2    2   -0.090819   -0.000000
    0    0    0    3    2   -0.000013    0.000000
    0    0    0    4    2   -0.000000    0.000000
    0    0    0    5    2    0.000002   -0.000000
    0    0    0    6    2    0.000001   -0.000000
    0    0    0    7    2   -0.049975   -0.000000
    0    0    0    8    2    0.184079   -0.000000
    0    0    0    9    2    0.000001    0.000000
    0    0    0   10    2   -0.000001    0.000000
    0    0    0   11    2   -0.000000    0.000000
    0    0    0   12    2    0.019487   -0.000000
    0    0    0   13    2   -0.000001   -0.000000
    0    0    0   14    2    0.000000    0.000000
    0    0    0   15    2    0.000000    0.000000
    0    0    0   16    2    0.000000   -0.000000
    0    0    0   17    2   -0.049975   -0.000000
    0    0    0   18    2   -0.184108    0.000000
    0    0    0   19    2   -0.000001    0.000000
    0    0    0   20    2   -0.000000   -0.000000
    0    0    0   21    2   -0.000001    0.000000
    0    0    0   22    2   -0.011754   -0.000000
    0    0    0   23    2    0.022055   -0.000000
    0    0    0   24    2    0.000000   -0.000000
    0    0    0   25    2    0.000000    0.000000
    0    0    0   26    2   -0.000000    0.000000
    0    0    0   27    2    0.026644    0.000000
    0    0    0   28    2    0.000002   -0.000000
    0    0    0   29    2   -0.000000    0.000000
    0    0    0   30    2    0.000001   -0.000000
    0    0    0   31    2    0.000000    0.000000
    0    0    0   32    2   -0.016467   -0.000000
    0    0    0   33    2    0.165627    0.000000
    0    0    0   34    2   -0.000000    0.000000
    0    0    0   35    2   -0.000000    0.000000
    0    0    0   36    2   -0.000001   -0.000000
    0    0    0   37    2   -0.011769    0.000000
    0    0    0   38    2   -0.022188   -0.000000
    0    0    0   39    2   -0.000001    0.000000
    0    0    0   40    2    0.000000   -0.000000
    0    0    0   41    2    0.000001    0.000000
    0    0    0   42    2   -0.011775   -0.000000
    0    0    0   43    2    0.022189    0.000000
    0    0    0   44    2    0.000001   -0.000000
    0    0    0   45    2    0.000000   -0.000000
    0    0    0   46    2   -0.000000   -0.000000
    0    0    0   47    2   -0.016400    0.000000
    0    0    0   48    2   -0.165628   -0.000000
    0    0    0   49    2    0.000000   -0.000000
    0    0    0   50    2   -0.000000   -0.000000
    0    0    0   51    2    0.000001   -0.000000
    0    0    0   52    2   -0.011748    0.000000
    0    0    0   53    2   -0.022055   -0.000000
    0    0    0   54    2   -0.000000   -0.000000
    0    0    0   55    2    0.000000   -0.000000
    0    0    0   56    2    0.000000    0.000000
    0    0    0   57    2   -0.040852    0.000000
    0    0    0   58    2    0.034766   -0.000000
    0    0    0   59    2    0.000001   -0.000000
    0    0    0   60    2   -0.000001   -0.000000
    0    0    0   61    2   -0.000000   -0.000000
    0    0    0   62    2    0.026673   -0.000000
    0    0    0   63    2   -0.000000   -0.000000
    0    0    0   64    2    0.000000   -0.000000
    0    0    0   65    2    0.000000    0.000000
    0    0    0   66    2   -0.000001    0.000000
    0    0    0   67    2   -0.016478   -0.000000
    0    0    0   68    2   -0.202123   -0.000000
    0    0    0   69    2   -0.000001    0.000000
    0    0    0   70    2    0.000000   -0.000000
    0    0    0   71    2    0.000001    0.000000
    0    0    0   72    2   -0.016410    0.000000
    0    0    0   73    2    0.202119    0.000000
    0    0    0   74    2    0.000001    0.000000
    0    0    0   75    2    0.000000    0.000000
    0    0    0   76    2   -0.000000   -0.000000
    0    0    0   77    2   -0.040843   -0.000000
    0    0    0   78    2   -0.034768   -0.000000
    0    0    0   79    2   -0.000001    0.000000
    0    0    0   80    2   -0.000001   -0.000000
    0    0    0   81    2    0.712298    0.000000
    0    0    0   82    2   -0.915690   -0.000000
    0    0    0   83    2   -0.818073   -0.000000
    0    0    0   84    2    0.712296   -0.000000
    0    0    0   85    2    0.915688    0.000000
    0    0    0   86    2    0.818074   -0.000000
    0    0    0   87    2    0.009145    0.000000
    0    0    0   88    2   -0.034453    0.000000
    0    0    0   89    2    0.012643   -0.000000
    0    0    0   90    2    0.009139    0.000000
    0    0    0   91    2    0.034453   -0.000000
    0    0    0   92    2   -0.012642   -0.000000
    0    0    0   93    2   -0.009145   -0.000000
    0    0    0   94    2   -0.034451   -0.000000
    0    0    0   95    2   -0.012645    0.000000
    0    0    0   96    2   -0.009139    0.000000
    0    0    0   97    2    0.034452   -0.000000
    0    0    0   98    2    0.012644   -0.000000
    0    0    0   99    2   -0.712301    0.000000
    0    0    0  100    2   -0.915720    0.000000
    0    0    0  101    2    0.818089    0.000000
    0    0    0  102    2   -0.712296   -0.000000
    0    0    0  103    2    0.915719   -0.000000
    0    0    0  104    2   -0.818090   -0.000000
    0    0    0  105    2    0.033857    0.000000
    0    0    0  106    2   -0.011783    0.000000
    0    0    0  107    2    0.040082   -0.000000
    0    0    0  108    2    0.033868   -0.000000
    0    0    0  109    2    0.011782   -0.000000
    0    0    0  110    2   -0.040081    0.000000
    0    0    0  111    2    0.042047   -0.000000
    0    0    0  112    2    0.000741   -0.000000
    0    0    0  113    2   -0.007168   -0.000000
    0    0    0  114    2    0.042052    0.000000
    0    0    0  115    2   -0.000742   -0.000000
    0    0    0  116    2    0.007166   -0.000000
    0    0    0  117    2    0.000002   -0.000000
    0    0    0  118    2    0.485308    0.000000
    0    0    0  119    2   -0.000029   -0.000000
    0    0    0  120    2    0.000002    0.000000
    0    0    0  121    2   -0.485309   -0.000000
    0    0    0  122    2    0.000029   -0.000000
    0    0    0  123    2   -0.020131   -0.000000
    0    0    0  124    2    0.027369   -0.000000
    0    0    0  125    2    0.022181   -0.000000
    0    0    0  126    2   -0.020115    0.000000
    0    0    0  127    2   -0.027370    0.000000
    0    0    0  128    2   -0.022181    0.000000
    0    0    0  129    2   -0.000000    0.000000
    0    0    0  130    2    0.007886   -0.000000
    0    0    0  131    2   -0.000000   -0.000000
    0    0    0  132    2   -0.000000    0.000000
    0    0    0  133    2   -0.007884   -0.000000
    0    0    0  134    2    0.000000    0.000000
    0    0    0  135    2    0.020135    0.000000
    0    0    0  136    2    0.027365    0.000000
    0    0    0  137    2   -0.022182   -0.000000
    0    0    0  138    2    0.020119    0.000000
    0    0    0  139    2   -0.027366    0.000000
    0    0    0  140    2    0.022182    0.000000
    0    0    0  141    2    0.000000    0.000000
    0    0    0  142    2    0.009487    0.000000
    0    0    0  143    2    0.000000    0.000000
    0    0    0  144    2    0.000000   -0.000000
    0    0    0  145    2   -0.009484    0.000000
    0    0    0  146    2   -0.000000    0.000000
    0    0    0  147    2   -0.042050   -0.000000
    0    0    0  148    2    0.000752   -0.000000
    0    0    0  149    2    0.007179    0.000000
    0    0    0  150    2   -0.042055    0.000000
    0    0    0  151    2   -0.000753    0.000000
    0    0    0  152    2   -0.007178   -0.000000
    0    0    0  153    2    0.016367    0.000000
    0    0    0  154    2    0.010380    0.000000
    0    0    0  155    2   -0.001736    0.000000
    0    0    0  156    2    0.016369   -0.000000
    0    0    0  157    2   -0.010380    0.000000
    0    0    0  158    2    0.001736   -0.000000
    0    0    0  159    2   -0.033854    0.000000
    0    0    0  160    2   -0.011786    0.000000
    0    0    0  161    2   -0.040087    0.000000
    0    0    0  162    2   -0.033865    0.000000
    0    0    0  163    2    0.011785   -0.000000
    0    0    0  164    2    0.040087    0.000000
    0    0    0  165    2   -0.000004   -0.000000
    0    0    0  166    2   -0.010638   -0.000000
    0    0    0  167    2    0.000008   -0.000000
    0    0    0  168    2   -0.000004   -0.000000
    0    0    0  169    2    0.010638   -0.000000
    0    0    0  170    2   -0.000008    0.000000
    0    0    0  171    2   -0.016367   -0.000000
    0    0    0  172    2    0.010380   -0.000000
    0    0    0  173    2    0.001735    0.000000
    0    0    0  174    2   -0.016369    0.000000
    0    0    0  175    2   -0.010380    0.000000
    0    0    0  176    2   -0.001736   -0.000000
    0    0    0    1    3    0.000001    0.000000
    0    0    0    2    3   -0.000013   -0.000000
    0    0    0    3    3   -0.092643   -0.000000
    0    0    0    4    3    0.000002    0.000000
    0    0    0    5    3    0.000000   -0.000000
    0    0    0    6    3    0.000000   -0.000000
    0    0    0    7    3   -0.184131   -0.000000
    0    0    0    8    3   -0.006149    0.000000
    0    0    0    9    3   -0.000001    0.000000
    0    0    0   10    3   -0.000000    0.000000
    0    0    0   11    3    0.000000    0.000000
    0    0    0   12    3   -0.000001   -0.000000
    0    0    0   13    3   -0.060830   -0.000000
    0    0    0   14    3   -0.000001   -0.000000
    0    0    0   15    3   -0.000000   -0.000000
    0    0    0   16    3    0.000000   -0.000000
    0    0    0   17    3    0.184104    0.000000
    0    0    0   18    3   -0.006150    0.000000
    0    0    0   19    3   -0.000000   -0.000000
    0    0    0   20    3    0.000000   -0.000000
    0    0    0   21    3    0.000000   -0.000000
    0    0    0   22    3    0.022159    0.000000
    0    0    0   23    3    0.013870   -0.000000
    0    0    0   24    3    0.000000    0.000000
    0    0    0   25    3    0.000000    0.000000
    0    0    0   26    3   -0.000001    0.000000
    0    0    0   27    3   -0.000000    0.000000
    0    0    0   28    3   -0.024232    0.000000
    0    0    0   29    3   -0.000000   -0.000000
    0    0    0   30    3   -0.000000    0.000000
    0    0    0   31    3    0.000000    0.000000
    0    0    0   32    3   -0.202112   -0.000000
    0    0    0   33    3   -0.038043    0.000000
    0    0    0   34    3    0.000001    0.000000
    0    0    0   35    3   -0.000002   -0.000000
    0    0    0   36    3   -0.000001   -0.000000
    0    0    0   37    3   -0.022088   -0.000000
    0    0    0   38    3    0.013876   -0.000000
    0    0    0   39    3    0.000000   -0.000000
    0    0    0   40    3   -0.000000    0.000000
    0    0    0   41    3   -0.000001   -0.000000
    0    0    0   42    3    0.022087    0.000000
    0    0    0   43    3    0.013879    0.000000
    0    0    0   44    3    0.000000    0.000000
    0    0    0   45    3    0.000000    0.000000
    0    0    0   46    3    0.000000    0.000000
    0    0    0   47    3    0.202108   -0.000000
    0    0    0   48    3   -0.038088   -0.000000
    0    0    0   49    3    0.000001    0.000000
    0    0    0   50    3    0.000002    0.000000
    0    0    0   51    3    0.000000    0.000000
    0    0    0   52    3   -0.022157    0.000000
    0    0    0   53    3    0.013867   -0.000000
    0    0    0   54    3    0.000000   -0.000000
    0    0    0   55    3   -0.000000   -0.000000
    0    0    0   56    3   -0.000000   -0.000000
    0    0    0   57    3    0.034766   -0.000000
    0    0    0   58    3   -0.000694   -0.000000
    0    0    0   59    3   -0.000000    0.000000
    0    0    0   60    3    0.000001    0.000000
    0    0    0   61    3    0.000001    0.000000
    0    0    0   62    3    0.000002    0.000000
    0    0    0   63    3   -0.024267    0.000000
    0    0    0   64    3    0.000000   -0.000000
    0    0    0   65    3   -0.000000   -0.000000
    0    0    0   66    3    0.000001    0.000000
    0    0    0   67    3    0.165619    0.000000
    0    0    0   68    3   -0.038026   -0.000000
    0    0    0   69    3    0.000000    0.000000
    0    0    0   70    3   -0.000000   -0.000000
    0    0    0   71    3    0.000001    0.000000
    0    0    0   72    3   -0.165621   -0.000000
    0    0    0   73    3   -0.038071   -0.000000
    0    0    0   74    3    0.000000    0.000000
    0    0    0   75    3    0.000000    0.000000
    0    0    0   76    3   -0.000000   -0.000000
    0    0    0   77    3   -0.034769    0.000000
    0    0    0   78    3   -0.000696   -0.000000
    0    0    0   79    3   -0.000000   -0.000000
    0    0    0   80    3   -0.000001   -0.000000
    0    0    0   81    3    0.418469   -0.000000
    0    0    0   82    3   -0.808092   -0.000000
    0    0    0   83    3    0.011548   -0.000000
    0    0    0   84    3    0.418470    0.000000
    0    0    0   85    3    0.808090    0.000000
    0    0    0   86    3   -0.011550   -0.000000
    0    0    0   87    3   -0.043544   -0.000000
    0    0    0   88    3   -0.027081    0.000000
    0    0    0   89    3    0.004815   -0.000000
    0    0    0   90    3   -0.043554    0.000000
    0    0    0   91    3    0.027080   -0.000000
    0    0    0   92    3   -0.004816    0.000000
    0    0    0   93    3   -0.043545    0.000000
    0    0    0   94    3    0.027082   -0.000000
    0    0    0   95    3    0.004814   -0.000000
    0    0    0   96    3   -0.043555    0.000000
    0    0    0   97    3   -0.027080    0.000000
    0    0    0   98    3   -0.004816    0.000000
    0    0    0   99    3    0.418462    0.000000
    0    0    0  100    3    0.808084    0.000000
    0    0    0  101    3    0.011523   -0.000000
    0    0    0  102    3    0.418461   -0.000000
    0    0    0  103    3   -0.808083   -0.000000
    0    0    0  104    3   -0.011524    0.000000
    0    0    0  105    3    0.029327    0.000000
    0    0    0  106    3    0.000751    0.000000
    0    0    0  107    3   -0.019090    0.000000
    0    0    0  108    3    0.029326   -0.000000
    0    0    0  109    3   -0.000753    0.000000
    0    0    0  110    3    0.019091   -0.000000
    0    0    0  111    3    0.013796    0.000000
    0    0    0  112    3    0.032698    0.000000
    0    0    0  113    3   -0.031347   -0.000000
    0    0    0  114    3    0.013807    0.000000
    0    0    0  115    3   -0.032697   -0.000000
    0    0    0  116    3    0.031347    0.000000
    0    0    0  117    3   -0.855731    0.000000
    0    0    0  118    3   -0.000008   -0.000000
    0    0    0  119    3   -1.370838    0.000000
    0    0    0  120    3   -0.855726    0.000000
    0    0    0  121    3    0.000007    0.000000
    0    0    0  122    3    1.370840   -0.000000
    0    0    0  123    3   -0.011661   -0.000000
    0    0    0  124    3    0.021577    0.000000
    0    0    0  125    3    0.002633   -0.000000
    0    0    0  126    3   -0.011652   -0.000000
    0    0    0  127    3   -0.021578    0.000000
    0    0    0  128    3   -0.002634    0.000000
    0    0    0  129    3    0.019054    0.000000
    0    0    0  130    3    0.000000   -0.000000
    0    0    0  131    3    0.010888    0.000000
    0    0    0  132    3    0.019055   -0.000000
    0    0    0  133    3    0.000000   -0.000000
    0    0    0  134    3   -0.010888   -0.000000
    0    0    0  135    3   -0.011659   -0.000000
    0    0    0  136    3   -0.021570    0.000000
    0    0    0  137    3    0.002632   -0.000000
    0    0    0  138    3   -0.011650    0.000000
    0    0    0  139    3    0.021570   -0.000000
    0    0    0  140    3   -0.002633    0.000000
    0    0    0  141    3    0.000091   -0.000000
    0    0    0  142    3    0.000000   -0.000000
    0    0    0  143    3    0.009542   -0.000000
    0    0    0  144    3    0.000091   -0.000000
    0    0    0  145    3   -0.000000   -0.000000
    0    0    0  146    3   -0.009539    0.000000
    0    0    0  147    3    0.013794    0.000000
    0    0    0  148    3   -0.032697   -0.000000
    0    0    0  149    3   -0.031338   -0.000000
    0    0    0  150    3    0.013805   -0.000000
    0    0    0  151    3    0.032697    0.000000
    0    0    0  152    3    0.031338    0.000000
    0    0    0  153    3   -0.009350   -0.000000
    0    0    0  154    3   -0.001377    0.000000
    0    0    0  155    3    0.008963   -0.000000
    0    0    0  156    3   -0.009351    0.000000
    0    0    0  157    3    0.001378   -0.000000
    0    0    0  158    3   -0.008961   -0.000000
    0    0    0  159    3    0.029326    0.000000
    0    0    0  160    3   -0.000757   -0.000000
    0    0    0  161    3   -0.019099    0.000000
    0    0    0  162    3    0.029325   -0.000000
    0    0    0  163    3    0.000758   -0.000000
    0    0    0  164    3    0.019099   -0.000000
    0    0    0  165    3    0.024144   -0.000000
    0    0    0  166    3    0.000010    0.000000
    0    0    0  167    3    0.040230    0.000000
    0    0    0  168    3    0.024126    0.000000
    0    0    0  169    3   -0.000010    0.000000
    0    0    0  170    3   -0.040230    0.000000
    0    0    0  171    3   -0.009351   -0.000000
    0    0    0  172    3    0.001378   -0.000000
    0    0    0  173    3    0.008961   -0.000000
    0    0    0  174    3   -0.009351    0.000000
    0    0    0  175    3   -0.001379    0.000000
    0    0    0  176    3   -0.008960    0.000000
    0    0    0    1    4   -0.035654   -0.000000
    0    0    0    2    4   -0.000000   -0.000000
    0    0    0    3    4    0.000002   -0.000000
    0    0    0    4    4   -0.846525    0.000000
    0    0    0    5    4    0.000034    0.000000
    0    0    0    6    4    0.366818    0.000000
    0    0    0    7    4   -0.000000   -0.000000
    0    0    0    8    4   -0.000001   -0.000000
    0    0    0    9    4   -0.242425   -0.000000
    0    0    0   10    4   -0.108748    0.000000
    0    0    0   11    4   -0.062264   -0.000000
    0    0    0   12    4    0.000000    0.000000
    0    0    0   13    4   -0.000001    0.000000
    0    0    0   14    4    0.030529    0.000000
    0    0    0   15    4   -0.000030   -0.000000
    0    0    0   16    4    0.366805    0.000000
    0    0    0   17    4   -0.000000   -0.000000
    0    0    0   18    4   -0.000000    0.000000
    0    0    0   19    4   -0.242429   -0.000000
    0    0    0   20    4    0.108778   -0.000000
    0    0    0   21    4    0.010377   -0.000000
    0    0    0   22    4    0.000000   -0.000000
    0    0    0   23    4    0.000000   -0.000000
    0    0    0   24    4   -0.004591    0.000000
    0    0    0   25    4   -0.017400   -0.000000
    0    0    0   26    4   -0.016269    0.000000
    0    0    0   27    4    0.000000    0.000000
    0    0    0   28    4    0.000000    0.000000
    0    0    0   29    4    0.052656   -0.000000
    0    0    0   30    4    0.000010   -0.000000
    0    0    0   31    4   -0.152397    0.000000
    0    0    0   32    4   -0.000001   -0.000000
    0    0    0   33    4    0.000000   -0.000000
    0    0    0   34    4   -0.088897    0.000000
    0    0    0   35    4    0.226778   -0.000000
    0    0    0   36    4   -0.005724   -0.000000
    0    0    0   37    4   -0.000000    0.000000
    0    0    0   38    4    0.000001   -0.000000
    0    0    0   39    4   -0.005282   -0.000000
    0    0    0   40    4    0.028292    0.000000
    0    0    0   41    4   -0.005729    0.000000
    0    0    0   42    4    0.000000   -0.000000
    0    0    0   43    4    0.000001   -0.000000
    0    0    0   44    4   -0.005279   -0.000000
    0    0    0   45    4   -0.028284   -0.000000
    0    0    0   46    4   -0.152494    0.000000
    0    0    0   47    4    0.000001    0.000000
    0    0    0   48    4    0.000000   -0.000000
    0    0    0   49    4   -0.088878    0.000000
    0    0    0   50    4   -0.226727    0.000000
    0    0    0   51    4    0.010384    0.000000
    0    0    0   52    4   -0.000000    0.000000
    0    0    0   53    4    0.000000   -0.000000
    0    0    0   54    4   -0.004593   -0.000000
    0    0    0   55    4    0.017393    0.000000
    0    0    0   56    4    0.027213    0.000000
    0    0    0   57    4    0.000001   -0.000000
    0    0    0   58    4   -0.000000    0.000000
    0    0    0   59    4    0.053790    0.000000
    0    0    0   60    4   -0.045493    0.000000
    0    0    0   61    4    0.021579    0.000000
    0    0    0   62    4    0.000000   -0.000000
    0    0    0   63    4   -0.000000    0.000000
    0    0    0   64    4    0.052693    0.000000
    0    0    0   65    4   -0.000025   -0.000000
    0    0    0   66    4   -0.398051    0.000000
    0    0    0   67    4    0.000001    0.000000
    0    0    0   68    4    0.000001    0.000000
    0    0    0   69    4   -0.075754   -0.000000
    0    0    0   70    4    0.630786    0.000000
    0    0    0   71    4   -0.397992    0.000000
    0    0    0   72    4   -0.000000    0.000000
    0    0    0   73    4    0.000001   -0.000000
    0    0    0   74    4   -0.075774   -0.000000
    0    0    0   75    4   -0.630596    0.000000
    0    0    0   76    4    0.027256   -0.000000
    0    0    0   77    4   -0.000001    0.000000
    0    0    0   78    4   -0.000000    0.000000
    0    0    0   79    4    0.053779    0.000000
    0    0    0   80    4    0.045482    0.000000
    0    0    0   81    4   -0.051371   -0.000000
    0    0    0   82    4   -0.044016    0.000000
    0    0    0   83    4    0.838506    0.000000
    0    0    0   84    4    0.051370   -0.000000
    0    0    0   85    4   -0.044015   -0.000000
    0    0    0   86    4    0.838505   -0.000000
    0    0    0   87    4    0.033680   -0.000000
    0    0    0   88    4   -0.020425   -0.000000
    0    0    0   89    4   -0.017235    0.000000
    0    0    0   90    4   -0.033667    0.000000
    0    0    0   91    4   -0.020423   -0.000000
    0    0    0   92    4   -0.017234    0.000000
    0    0    0   93    4    0.033680    0.000000
    0    0    0   94    4    0.020423    0.000000
    0    0    0   95    4   -0.017240    0.000000
    0    0    0   96    4   -0.033667    0.000000
    0    0    0   97    4    0.020421    0.000000
    0    0    0   98    4   -0.017239    0.000000
    0    0    0   99    4   -0.051364    0.000000
    0    0    0  100    4    0.044027   -0.000000
    0    0    0  101    4    0.838593   -0.000000
    0    0    0  102    4    0.051363    0.000000
    0    0    0  103    4    0.044025   -0.000000
    0    0    0  104    4    0.838593    0.000000
    0    0    0  105    4   -0.046403   -0.000000
    0    0    0  106    4   -0.028224    0.000000
    0    0    0  107    4    0.008757   -0.000000
    0    0    0  108    4    0.046410    0.000000
    0    0    0  109    4   -0.028224    0.000000
    0    0    0  110    4    0.008757   -0.000000
    0    0    0  111    4   -0.028194   -0.000000
    0    0    0  112    4    0.002042   -0.000000
    0    0    0  113    4   -0.017466    0.000000
    0    0    0  114    4    0.028194    0.000000
    0    0    0  115    4    0.002041   -0.000000
    0    0    0  116    4   -0.017466    0.000000
    0    0    0  117    4    0.763526    0.000000
    0    0    0  118    4    0.000007    0.000000
    0    0    0  119    4    0.191756   -0.000000
    0    0    0  120    4   -0.763526    0.000000
    0    0    0  121    4    0.000007    0.000000
    0    0    0  122    4    0.191759   -0.000001
    0    0    0  123    4   -0.050010    0.000000
    0    0    0  124    4   -0.038755   -0.000000
    0    0    0  125    4   -0.019640    0.000000
    0    0    0  126    4    0.050008   -0.000000
    0    0    0  127    4   -0.038755   -0.000000
    0    0    0  128    4   -0.019640    0.000000
    0    0    0  129    4    0.012961   -0.000000
    0    0    0  130    4    0.000001    0.000000
    0    0    0  131    4   -0.002645   -0.000000
    0    0    0  132    4   -0.012956   -0.000000
    0    0    0  133    4    0.000001    0.000000
    0    0    0  134    4   -0.002645   -0.000000
    0    0    0  135    4   -0.050004   -0.000000
    0    0    0  136    4    0.038752   -0.000000
    0    0    0  137    4   -0.019621    0.000000
    0    0    0  138    4    0.050002    0.000000
    0    0    0  139    4    0.038752   -0.000000
    0    0    0  140    4   -0.019621    0.000000
    0    0    0  141    4    0.009149    0.000000
    0    0    0  142    4    0.000000   -0.000000
    0    0    0  143    4    0.000585    0.000000
    0    0    0  144    4   -0.009136   -0.000000
    0    0    0  145    4    0.000000   -0.000000
    0    0    0  146    4    0.000583    0.000000
    0    0    0  147    4   -0.028192   -0.000000
    0    0    0  148    4   -0.002043    0.000000
    0    0    0  149    4   -0.017492    0.000000
    0    0    0  150    4    0.028192    0.000000
    0    0    0  151    4   -0.002043    0.000000
    0    0    0  152    4   -0.017492    0.000000
    0    0    0  153    4   -0.009540    0.000000
    0    0    0  154    4    0.005530   -0.000000
    0    0    0  155    4    0.018498    0.000000
    0    0    0  156    4    0.009553    0.000000
    0    0    0  157    4    0.005528   -0.000000
    0    0    0  158    4    0.018497    0.000000
    0    0    0  159    4   -0.046411   -0.000000
    0    0    0  160    4    0.028225    0.000000
    0    0    0  161    4    0.008753   -0.000000
    0    0    0  162    4    0.046419    0.000000
    0    0    0  163    4    0.028225    0.000000
    0    0    0  164    4    0.008753   -0.000000
    0    0    0  165    4    0.146604    0.000000
    0    0    0  166    4    0.000005   -0.000000
    0    0    0  167    4   -0.187932    0.000000
    0    0    0  168    4   -0.146591    0.000000
    0    0    0  169    4    0.000005   -0.000000
    0    0    0  170    4   -0.187931    0.000000
    0    0    0  171    4   -0.009543   -0.000000
    0    0    0  172    4   -0.005531    0.000000
    0    0    0  173    4    0.018502   -0.000000
    0    0    0  174    4    0.009556    0.000000
    0    0    0  175    4   -0.005530    0.000000
    0    0    0  176    4    0.018501   -0.000000
    0    0    0    1    5   -0.000087    0.000000
    0    0    0    2    5    0.000002    0.000000
    0    0    0    3    5    0.000000    0.000000
    0    0    0    4    5    0.000034   -0.000000
    0    0    0    5    5   -0.828996   -0.000000
    0    0    0    6    5   -0.206320   -0.000000
    0    0    0    7    5   -0.000001   -0.000000
    0    0    0    8    5    0.000000   -0.000000
    0    0    0    9    5    0.161173   -0.000000
    0    0    0   10    5    0.254908   -0.000000
    0    0    0   11    5   -0.000003   -0.000000
    0    0    0   12    5    0.000000   -0.000000
    0    0    0   13    5   -0.000000    0.000000
    0    0    0   14    5   -0.000003    0.000000
    0    0    0   15    5    0.015750    0.000000
    0    0    0   16    5    0.206270   -0.000000
    0    0    0   17    5   -0.000001   -0.000000
    0    0    0   18    5   -0.000000    0.000000
    0    0    0   19    5   -0.161138    0.000000
    0    0    0   20    5    0.254909   -0.000000
    0    0    0   21    5    0.008267   -0.000000
    0    0    0   22    5    0.000000    0.000000
    0    0    0   23    5    0.000000   -0.000000
    0    0    0   24    5   -0.028416   -0.000000
    0    0    0   25    5    0.029194   -0.000000
    0    0    0   26    5   -0.000010    0.000000
    0    0    0   27    5    0.000001    0.000000
    0    0    0   28    5   -0.000000   -0.000000
    0    0    0   29    5   -0.000022   -0.000000
    0    0    0   30    5   -0.020092   -0.000000
    0    0    0   31    5    0.150503    0.000000
    0    0    0   32    5    0.000001    0.000000
    0    0    0   33    5   -0.000000    0.000000
    0    0    0   34    5    0.655341   -0.000000
    0    0    0   35    5   -0.311597    0.000000
    0    0    0   36    5   -0.034251   -0.000000
    0    0    0   37    5    0.000000    0.000000
    0    0    0   38    5   -0.000000   -0.000000
    0    0    0   39    5    0.016191   -0.000000
    0    0    0   40    5    0.032180    0.000000
    0    0    0   41    5    0.034259    0.000000
    0    0    0   42    5    0.000000   -0.000000
    0    0    0   43    5    0.000000   -0.000000
    0    0    0   44    5   -0.016198   -0.000000
    0    0    0   45    5    0.032174   -0.000000
    0    0    0   46    5   -0.150681    0.000000
    0    0    0   47    5    0.000001    0.000000
    0    0    0   48    5    0.000001   -0.000000
    0    0    0   49    5   -0.655093    0.000000
    0    0    0   50    5   -0.311577    0.000000
    0    0    0   51    5   -0.008258   -0.000000
    0    0    0   52    5    0.000000   -0.000000
    0    0    0   53    5   -0.000000   -0.000000
    0    0    0   54    5    0.028421   -0.000000
    0    0    0   55    5    0.029194    0.000000
    0    0    0   56    5   -0.043580   -0.000000
    0    0    0   57    5   -0.000001   -0.000000
    0    0    0   58    5    0.000001    0.000000
    0    0    0   59    5   -0.045520    0.000000
    0    0    0   60    5    0.063267    0.000000
    0    0    0   61    5   -0.000006    0.000000
    0    0    0   62    5    0.000001    0.000000
    0    0    0   63    5   -0.000000   -0.000000
    0    0    0   64    5   -0.000002    0.000000
    0    0    0   65    5   -0.020100   -0.000000
    0    0    0   66    5    0.217727   -0.000000
    0    0    0   67    5   -0.000001   -0.000000
    0    0    0   68    5   -0.000002   -0.000000
    0    0    0   69    5    0.215584    0.000000
    0    0    0   70    5   -0.304734   -0.000000
    0    0    0   71    5   -0.217698    0.000000
    0    0    0   72    5   -0.000001    0.000000
    0    0    0   73    5    0.000002    0.000000
    0    0    0   74    5   -0.215601   -0.000000
    0    0    0   75    5   -0.304695   -0.000000
    0    0    0   76    5    0.043643   -0.000000
    0    0    0   77    5   -0.000001   -0.000000
    0    0    0   78    5   -0.000001    0.000000
    0    0    0   79    5    0.045502    0.000000
    0    0    0   80    5    0.063239    0.000000
    0    0    0   81    5   -0.512871   -0.000000
    0    0    0   82    5    0.542304   -0.000000
    0    0    0   83    5   -0.209992    0.000000
    0    0    0   84    5    0.512870    0.000000
    0    0    0   85    5    0.542306    0.000000
    0    0    0   86    5   -0.209991   -0.000000
    0    0    0   87    5   -0.010691   -0.000000
    0    0    0   88    5    0.002348   -0.000000
    0    0    0   89    5    0.007564   -0.000000
    0    0    0   90    5    0.010696    0.000000
    0    0    0   91    5    0.002348   -0.000000
    0    0    0   92    5    0.007564   -0.000000
    0    0    0   93    5    0.010685    0.000000
    0    0    0   94    5    0.002345    0.000000
    0    0    0   95    5   -0.007568   -0.000000
    0    0    0   96    5   -0.010690   -0.000000
    0    0    0   97    5    0.002345    0.000000
    0    0    0   98    5   -0.007568   -0.000000
    0    0    0   99    5    0.512881    0.000000
    0    0    0  100    5    0.542177    0.000000
    0    0    0  101    5    0.210090   -0.000000
    0    0    0  102    5   -0.512879    0.000000
    0    0    0  103    5    0.542180   -0.000000
    0    0    0  104    5    0.210088   -0.000000
    0    0    0  105    5   -0.038589   -0.000000
    0    0    0  106    5   -0.024729   -0.000000
    0    0    0  107    5    0.012870    0.000000
    0    0    0  108    5    0.038580    0.000000
    0    0    0  109    5   -0.024728   -0.000000
    0    0    0  110    5    0.012869    0.000000
    0    0    0  111    5   -0.050977    0.000000
    0    0    0  112    5   -0.006592   -0.000000
    0    0    0  113    5   -0.033934   -0.000000
    0    0    0  114    5    0.050973   -0.000000
    0    0    0  115    5   -0.006592   -0.000000
    0    0    0  116    5   -0.033933   -0.000000
    0    0    0  117    5    0.000031   -0.000000
    0    0    0  118    5    0.915474   -0.000000
    0    0    0  119    5   -0.000186   -0.000000
    0    0    0  120    5   -0.000032   -0.000000
    0    0    0  121    5    0.915473   -0.000000
    0    0    0  122    5   -0.000185    0.000000
    0    0    0  123    5   -0.122013   -0.000000
    0    0    0  124    5   -0.120080    0.000000
    0    0    0  125    5   -0.068941    0.000000
    0    0    0  126    5    0.122003    0.000000
    0    0    0  127    5   -0.120080    0.000000
    0    0    0  128    5   -0.068941    0.000000
    0    0    0  129    5   -0.000001   -0.000000
    0    0    0  130    5    0.023151   -0.000000
    0    0    0  131    5   -0.000003   -0.000000
    0    0    0  132    5    0.000001    0.000000
    0    0    0  133    5    0.023149   -0.000000
    0    0    0  134    5   -0.000003   -0.000000
    0    0    0  135    5    0.122024    0.000000
    0    0    0  136    5   -0.120095    0.000000
    0    0    0  137    5    0.068914    0.000000
    0    0    0  138    5   -0.122013   -0.000000
    0    0    0  139    5   -0.120095    0.000000
    0    0    0  140    5    0.068914    0.000000
    0    0    0  141    5   -0.000003    0.000000
    0    0    0  142    5    0.000854    0.000000
    0    0    0  143    5   -0.000000    0.000000
    0    0    0  144    5    0.000003   -0.000000
    0    0    0  145    5    0.000852    0.000000
    0    0    0  146    5   -0.000000    0.000000
    0    0    0  147    5    0.050996    0.000000
    0    0    0  148    5   -0.006555    0.000000
    0    0    0  149    5    0.034064   -0.000000
    0    0    0  150    5   -0.050992   -0.000000
    0    0    0  151    5   -0.006555    0.000000
    0    0    0  152    5    0.034063   -0.000000
    0    0    0  153    5    0.014226    0.000000
    0    0    0  154    5    0.006680   -0.000000
    0    0    0  155    5    0.009003   -0.000000
    0    0    0  156    5   -0.014231    0.000000
    0    0    0  157    5    0.006679   -0.000000
    0    0    0  158    5    0.009002   -0.000000
    0    0    0  159    5    0.038585    0.000000
    0    0    0  160    5   -0.024713   -0.000000
    0    0    0  161    5   -0.012857   -0.000000
    0    0    0  162    5   -0.038576    0.000000
    0    0    0  163    5   -0.024712   -0.000000
    0    0    0  164    5   -0.012856   -0.000000
    0    0    0  165    5   -0.000000    0.000000
    0    0    0  166    5    0.002150    0.000000
    0    0    0  167    5    0.000011    0.000000
    0    0    0  168    5    0.000000   -0.000000
    0    0    0  169    5    0.002150    0.000000
    0    0    0  170    5    0.000011    0.000000
    0    0    0  171    5   -0.014225    0.000000
    0    0    0  172    5    0.006681    0.000000
    0    0    0  173    5   -0.009012   -0.000000
    0    0    0  174    5    0.014230   -0.000000
    0    0    0  175    5    0.006681    0.000000
    0    0    0  176    5   -0.009011   -0.000000
    0    0    0    1    6   -0.574099    0.000000
    0    0    0    2    6    0.000001    0.000000
    0    0    0    3    6    0.000000    0.000000
    0    0    0    4    6    0.366818   -0.000000
    0    0    0    5    6   -0.206320    0.000000
    0    0    0    6    6   -0.924023    0.000000
    0    0    0    7    6   -0.000001   -0.000000
    0    0    0    8    6    0.000001   -0.000000
    0    0    0    9    6   -0.035780   -0.000000
    0    0    0   10    6   -0.009061    0.000000
    0    0    0   11    6   -0.537210    0.000000
    0    0    0   12    6    0.000001    0.000000
    0    0    0   13    6   -0.000000    0.000000
    0    0    0   14    6    0.334942   -0.000000
    0    0    0   15    6    0.148076   -0.000000
    0    0    0   16    6    0.084990    0.000000
    0    0    0   17    6   -0.000000   -0.000000
    0    0    0   18    6    0.000000    0.000000
    0    0    0   19    6   -0.061520   -0.000000
    0    0    0   20    6   -0.012449   -0.000000
    0    0    0   21    6    0.019528   -0.000000
    0    0    0   22    6   -0.000001   -0.000000
    0    0    0   23    6   -0.000000   -0.000000
    0    0    0   24    6   -0.009370   -0.000000
    0    0    0   25    6   -0.039950   -0.000000
    0    0    0   26    6    0.020395    0.000000
    0    0    0   27    6    0.000000   -0.000000
    0    0    0   28    6   -0.000001    0.000000
    0    0    0   29    6    0.031643   -0.000000
    0    0    0   30    6   -0.049736    0.000000
    0    0    0   31    6    0.024213   -0.000000
    0    0    0   32    6    0.000001   -0.000000
    0    0    0   33    6    0.000000   -0.000000
    0    0    0   34    6    0.009604    0.000000
    0    0    0   35    6   -0.010851   -0.000000
    0    0    0   36    6    0.017345   -0.000000
    0    0    0   37    6   -0.000001   -0.000000
    0    0    0   38    6    0.000000    0.000000
    0    0    0   39    6    0.012979    0.000000
    0    0    0   40    6    0.003002    0.000000
    0    0    0   41    6   -0.093977   -0.000000
    0    0    0   42    6    0.000001    0.000000
    0    0    0   43    6    0.000001   -0.000000
    0    0    0   44    6   -0.296385   -0.000000
    0    0    0   45    6   -0.167891   -0.000000
    0    0    0   46    6   -0.148182    0.000000
    0    0    0   47    6   -0.000001   -0.000000
    0    0    0   48    6    0.000001   -0.000000
    0    0    0   49    6   -0.425114    0.000000
    0    0    0   50    6    0.231053    0.000000
    0    0    0   51    6   -0.150445   -0.000000
    0    0    0   52    6    0.000000    0.000000
    0    0    0   53    6    0.000002   -0.000000
    0    0    0   54    6   -0.182310    0.000000
    0    0    0   55    6    0.191637    0.000000
    0    0    0   56    6    0.013237   -0.000000
    0    0    0   57    6   -0.000000    0.000000
    0    0    0   58    6   -0.000001    0.000000
    0    0    0   59    6   -0.016256   -0.000000
    0    0    0   60    6    0.002130    0.000000
    0    0    0   61    6    0.011408    0.000000
    0    0    0   62    6    0.000000    0.000000
    0    0    0   63    6   -0.000000    0.000000
    0    0    0   64    6    0.022163   -0.000000
    0    0    0   65    6    0.036574   -0.000000
    0    0    0   66    6   -0.091700   -0.000000
    0    0    0   67    6   -0.000000    0.000000
    0    0    0   68    6    0.000000   -0.000000
    0    0    0   69    6   -0.141790    0.000000
    0    0    0   70    6   -0.135265   -0.000000
    0    0    0   71    6    0.022026   -0.000000
    0    0    0   72    6    0.000001   -0.000000
    0    0    0   73    6   -0.000001    0.000000
    0    0    0   74    6   -0.004739    0.000000
    0    0    0   75    6    0.031312    0.000000
    0    0    0   76    6    0.013302   -0.000000
    0    0    0   77    6   -0.000000    0.000000
    0    0    0   78    6    0.000001    0.000000
    0    0    0   79    6    0.021321    0.000000
    0    0    0   80    6    0.002005   -0.000000
    0    0    0   81    6    0.607365   -0.000000
    0    0    0   82    6   -0.575855    0.000000
    0    0    0   83    6   -0.048379    0.000000
    0    0    0   84    6   -0.607364   -0.000000
    0    0    0   85    6   -0.575858    0.000000
    0    0    0   86    6   -0.048378    0.000000
    0    0    0   87    6    0.713612   -0.000000
    0    0    0   88    6    0.463479   -0.000000
    0    0    0   89    6   -0.004539    0.000000
    0    0    0   90    6   -0.713613    0.000000
    0    0    0   91    6    0.463480   -0.000000
    0    0    0   92    6   -0.004541    0.000000
    0    0    0   93    6   -0.052156   -0.000000
    0    0    0   94    6    0.023947    0.000000
    0    0    0   95    6    0.016977    0.000000
    0    0    0   96    6    0.052170    0.000000
    0    0    0   97    6    0.023948    0.000000
    0    0    0   98    6    0.016978    0.000000
    0    0    0   99    6   -0.054383    0.000000
    0    0    0  100    6   -0.024573   -0.000000
    0    0    0  101    6    0.018514    0.000000
    0    0    0  102    6    0.054398   -0.000000
    0    0    0  103    6   -0.024575   -0.000000
    0    0    0  104    6    0.018515    0.000000
    0    0    0  105    6    0.024331    0.000000
    0    0    0  106    6   -0.000069    0.000000
    0    0    0  107    6   -0.000523   -0.000000
    0    0    0  108    6   -0.024297   -0.000000
    0    0    0  109    6   -0.000069    0.000000
    0    0    0  110    6   -0.000522   -0.000000
    0    0    0  111    6   -0.036443   -0.000000
    0    0    0  112    6    0.002191   -0.000000
    0    0    0  113    6   -0.016349    0.000000
    0    0    0  114    6    0.036463    0.000000
    0    0    0  115    6    0.002191   -0.000000
    0    0    0  116    6   -0.016350    0.000000
    0    0    0  117    6    0.083436   -0.000000
    0    0    0  118    6    0.110519   -0.000000
    0    0    0  119    6    0.062177   -0.000000
    0    0    0  120    6   -0.083425    0.000000
    0    0    0  121    6    0.110518   -0.000000
    0    0    0  122    6    0.062177   -0.000000
    0    0    0  123    6   -0.011770    0.000000
    0    0    0  124    6   -0.002363   -0.000000
    0    0    0  125    6   -0.010002    0.000000
    0    0    0  126    6    0.011800   -0.000000
    0    0    0  127    6   -0.002363   -0.000000
    0    0    0  128    6   -0.010003    0.000000
    0    0    0  129    6    0.058053   -0.000000
    0    0    0  130    6   -0.085590    0.000000
    0    0    0  131    6    0.047846   -0.000000
    0    0    0  132    6   -0.058044    0.000000
    0    0    0  133    6   -0.085590    0.000000
    0    0    0  134    6    0.047846   -0.000000
    0    0    0  135    6    0.340886    0.000000
    0    0    0  136    6   -0.094753    0.000000
    0    0    0  137    6   -0.663390    0.000000
    0    0    0  138    6   -0.340893    0.000000
    0    0    0  139    6   -0.094752    0.000000
    0    0    0  140    6   -0.663384    0.000000
    0    0    0  141    6   -0.028043    0.000000
    0    0    0  142    6    0.010300   -0.000000
    0    0    0  143    6    0.008048    0.000000
    0    0    0  144    6    0.028059   -0.000000
    0    0    0  145    6    0.010302    0.000000
    0    0    0  146    6    0.008049   -0.000000
    0    0    0  147    6   -0.004423    0.000000
    0    0    0  148    6   -0.012183    0.000000
    0    0    0  149    6   -0.001846    0.000000
    0    0    0  150    6    0.004450   -0.000000
    0    0    0  151    6   -0.012183    0.000000
    0    0    0  152    6   -0.001844    0.000000
    0    0    0  153    6   -0.001454    0.000000
    0    0    0  154    6    0.010790   -0.000000
    0    0    0  155    6   -0.000024    0.000000
    0    0    0  156    6    0.001480   -0.000000
    0    0    0  157    6    0.010790   -0.000000
    0    0    0  158    6   -0.000023    0.000000
    0    0    0  159    6   -0.004141    0.000000
    0    0    0  160    6   -0.000214   -0.000000
    0    0    0  161    6   -0.029986   -0.000000
    0    0    0  162    6    0.004145    0.000000
    0    0    0  163    6   -0.000214   -0.000000
    0    0    0  164    6   -0.029986   -0.000000
    0    0    0  165    6   -0.020095    0.000000
    0    0    0  166    6   -0.005176    0.000000
    0    0    0  167    6    0.005519   -0.000000
    0    0    0  168    6    0.020113   -0.000000
    0    0    0  169    6   -0.005177    0.000000
    0    0    0  170    6    0.005521   -0.000000
    0    0    0  171    6   -0.026113    0.000000
    0    0    0  172    6   -0.000710    0.000000
    0    0    0  173    6   -0.009541    0.000000
    0    0    0  174    6    0.026133    0.000000
    0    0    0  175    6   -0.000710    0.000000
    0    0    0  176    6   -0.009542    0.000000
    0    0    0    1    7   -0.000001   -0.000000
    0    0    0    2    7   -0.049975    0.000000
    0    0    0    3    7   -0.184131    0.000000
    0    0    0    4    7   -0.000000    0.000000
    0    0    0    5    7   -0.000001    0.000000
    0    0    0    6    7   -0.000001    0.000000
    0    0    0    7    7   -0.091121   -0.000000
    0    0    0    8    7    0.000014    0.000000
    0    0    0    9    7    0.000001    0.000000
    0    0    0   10    7    0.000001   -0.000000
    0    0    0   11    7   -0.000001   -0.000000
    0    0    0   12    7   -0.050063   -0.000000
    0    0    0   13    7    0.184113    0.000000
    0    0    0   14    7    0.000002    0.000000
    0    0    0   15    7    0.000000    0.000000
    0    0    0   16    7    0.000000    0.000000
    0    0    0   17    7    0.019486    0.000000
    0    0    0   18    7   -0.000013    0.000000
    0    0    0   19    7   -0.000000   -0.000000
    0    0    0   20    7    0.000000    0.000000
    0    0    0   21    7    0.000001   -0.000000
    0    0    0   22    7   -0.011746   -0.000000
    0    0    0   23    7   -0.022062    0.000000
    0    0    0   24    7   -0.000000    0.000000
    0    0    0   25    7   -0.000000   -0.000000
    0    0    0   26    7    0.000000   -0.000000
    0    0    0   27    7   -0.040846    0.000000
    0    0    0   28    7    0.034780   -0.000000
    0    0    0   29    7    0.000001   -0.000000
    0    0    0   30    7   -0.000001    0.000000
    0    0    0   31    7   -0.000001   -0.000000
    0    0    0   32    7   -0.011761   -0.000000
    0    0    0   33    7   -0.022168   -0.000000
    0    0    0   34    7   -0.000000   -0.000000
    0    0    0   35    7    0.000000    0.000000
    0    0    0   36    7    0.000001    0.000000
    0    0    0   37    7   -0.011753    0.000000
    0    0    0   38    7    0.022178   -0.000000
    0    0    0   39    7    0.000001   -0.000000
    0    0    0   40    7    0.000000    0.000000
    0    0    0   41    7   -0.000000    0.000000
    0    0    0   42    7   -0.016375   -0.000000
    0    0    0   43    7   -0.165651   -0.000000
    0    0    0   44    7   -0.000000   -0.000000
    0    0    0   45    7    0.000000   -0.000000
    0    0    0   46    7   -0.000000    0.000000
    0    0    0   47    7   -0.016493    0.000000
    0    0    0   48    7    0.165622   -0.000000
    0    0    0   49    7   -0.000001    0.000000
    0    0    0   50    7   -0.000000   -0.000000
    0    0    0   51    7   -0.000001    0.000000
    0    0    0   52    7   -0.016473    0.000000
    0    0    0   53    7   -0.202192   -0.000000
    0    0    0   54    7   -0.000002    0.000000
    0    0    0   55    7    0.000001   -0.000000
    0    0    0   56    7   -0.000000    0.000000
    0    0    0   57    7    0.026661   -0.000000
    0    0    0   58    7    0.000007    0.000000
    0    0    0   59    7    0.000000   -0.000000
    0    0    0   60    7    0.000001    0.000000
    0    0    0   61    7   -0.000000    0.000000
    0    0    0   62    7   -0.040844    0.000000
    0    0    0   63    7   -0.034775   -0.000000
    0    0    0   64    7   -0.000001    0.000000
    0    0    0   65    7   -0.000001   -0.000000
    0    0    0   66    7    0.000001    0.000000
    0    0    0   67    7   -0.016400    0.000000
    0    0    0   68    7    0.202132   -0.000000
    0    0    0   69    7    0.000001   -0.000000
    0    0    0   70    7    0.000001    0.000000
    0    0    0   71    7   -0.000001    0.000000
    0    0    0   72    7   -0.011764   -0.000000
    0    0    0   73    7    0.022074   -0.000000
    0    0    0   74    7    0.000000   -0.000000
    0    0    0   75    7    0.000000    0.000000
    0    0    0   76    7   -0.000000    0.000000
    0    0    0   77    7    0.026648    0.000000
    0    0    0   78    7   -0.000004    0.000000
    0    0    0   79    7    0.000000   -0.000000
    0    0    0   80    7    0.000001   -0.000000
    0    0    0   81    7   -0.712639    0.000000
    0    0    0   82    7   -0.915682    0.000000
    0    0    0   83    7    0.817694   -0.000000
    0    0    0   84    7   -0.712637    0.000000
    0    0    0   85    7    0.915682    0.000000
    0    0    0   86    7   -0.817695    0.000000
    0    0    0   87    7    0.712408   -0.000000
    0    0    0   88    7   -0.915777   -0.000000
    0    0    0   89    7   -0.818087   -0.000000
    0    0    0   90    7    0.712400    0.000000
    0    0    0   91    7    0.915774    0.000000
    0    0    0   92    7    0.818085   -0.000000
    0    0    0   93    7    0.009142    0.000000
    0    0    0   94    7   -0.034450    0.000000
    0    0    0   95    7    0.012668   -0.000000
    0    0    0   96    7    0.009137   -0.000000
    0    0    0   97    7    0.034450   -0.000000
    0    0    0   98    7   -0.012666    0.000000
    0    0    0   99    7   -0.009157   -0.000000
    0    0    0  100    7   -0.034452   -0.000000
    0    0    0  101    7   -0.012642   -0.000000
    0    0    0  102    7   -0.009151    0.000000
    0    0    0  103    7    0.034452    0.000000
    0    0    0  104    7    0.012642    0.000000
    0    0    0  105    7    0.000004   -0.000000
    0    0    0  106    7    0.009496   -0.000000
    0    0    0  107    7   -0.000000    0.000000
    0    0    0  108    7    0.000004   -0.000000
    0    0    0  109    7   -0.009494   -0.000000
    0    0    0  110    7    0.000000    0.000000
    0    0    0  111    7   -0.042039    0.000000
    0    0    0  112    7    0.000756   -0.000000
    0    0    0  113    7    0.007183    0.000000
    0    0    0  114    7   -0.042044   -0.000000
    0    0    0  115    7   -0.000756    0.000000
    0    0    0  116    7   -0.007181    0.000000
    0    0    0  117    7   -0.020115   -0.000000
    0    0    0  118    7    0.027372   -0.000000
    0    0    0  119    7    0.022182   -0.000000
    0    0    0  120    7   -0.020100   -0.000000
    0    0    0  121    7   -0.027373   -0.000000
    0    0    0  122    7   -0.022182   -0.000000
    0    0    0  123    7   -0.000003   -0.000000
    0    0    0  124    7    0.007882   -0.000000
    0    0    0  125    7   -0.000010    0.000000
    0    0    0  126    7   -0.000003   -0.000000
    0    0    0  127    7   -0.007881    0.000000
    0    0    0  128    7    0.000010   -0.000000
    0    0    0  129    7    0.020120   -0.000000
    0    0    0  130    7    0.027350    0.000000
    0    0    0  131    7   -0.022185   -0.000000
    0    0    0  132    7    0.020104    0.000000
    0    0    0  133    7   -0.027351    0.000000
    0    0    0  134    7    0.022186    0.000000
    0    0    0  135    7    0.000076   -0.000000
    0    0    0  136    7    0.485320    0.000000
    0    0    0  137    7   -0.000020    0.000000
    0    0    0  138    7    0.000075    0.000000
    0    0    0  139    7   -0.485321    0.000000
    0    0    0  140    7    0.000020   -0.000000
    0    0    0  141    7   -0.033866    0.000000
    0    0    0  142    7   -0.011783   -0.000000
    0    0    0  143    7   -0.040094    0.000000
    0    0    0  144    7   -0.033876    0.000000
    0    0    0  145    7    0.011782   -0.000000
    0    0    0  146    7    0.040094   -0.000000
    0    0    0  147    7    0.016363   -0.000000
    0    0    0  148    7    0.010384    0.000000
    0    0    0  149    7   -0.001737   -0.000000
    0    0    0  150    7    0.016364   -0.000000
    0    0    0  151    7   -0.010384   -0.000000
    0    0    0  152    7    0.001738    0.000000
    0    0    0  153    7   -0.016363   -0.000000
    0    0    0  154    7    0.010383   -0.000000
    0    0    0  155    7    0.001737   -0.000000
    0    0    0  156    7   -0.016364    0.000000
    0    0    0  157    7   -0.010382    0.000000
    0    0    0  158    7   -0.001737    0.000000
    0    0    0  159    7   -0.000009   -0.000000
    0    0    0  160    7   -0.010651    0.000000
    0    0    0  161    7    0.000006    0.000000
    0    0    0  162    7   -0.000009   -0.000000
    0    0    0  163    7    0.010651    0.000000
    0    0    0  164    7   -0.000006   -0.000000
    0    0    0  165    7    0.033864   -0.000000
    0    0    0  166    7   -0.011790   -0.000000
    0    0    0  167    7    0.040087    0.000000
    0    0    0  168    7    0.033875    0.000000
    0    0    0  169    7    0.011789    0.000000
    0    0    0  170    7   -0.040087   -0.000000
    0    0    0  171    7    0.042051   -0.000000
    0    0    0  172    7    0.000740    0.000000
    0    0    0  173    7   -0.007171   -0.000000
    0    0    0  174    7    0.042056   -0.000000
    0    0    0  175    7   -0.000740   -0.000000
    0    0    0  176    7    0.007169    0.000000
    0    0    0    1    8    0.000000   -0.000000
    0    0    0    2    8    0.184079    0.000000
    0    0    0    3    8   -0.006149   -0.000000
    0    0    0    4    8   -0.000001    0.000000
    0    0    0    5    8    0.000000    0.000000
    0    0    0    6    8    0.000001    0.000000
    0    0    0    7    8    0.000014   -0.000000
    0    0    0    8    8   -0.092991   -0.000000
    0    0    0    9    8    0.000002    0.000000
    0    0    0   10    8    0.000001   -0.000000
    0    0    0   11    8    0.000000    0.000000
    0    0    0   12    8   -0.184166    0.000000
    0    0    0   13    8   -0.006181   -0.000000
    0    0    0   14    8   -0.000000   -0.000000
    0    0    0   15    8   -0.000001    0.000000
    0    0    0   16    8    0.000000    0.000000
    0    0    0   17    8    0.000011   -0.000000
    0    0    0   18    8   -0.060830    0.000000
    0    0    0   19    8   -0.000001   -0.000000
    0    0    0   20    8   -0.000000    0.000000
    0    0    0   21    8    0.000000   -0.000000
    0    0    0   22    8   -0.022162   -0.000000
    0    0    0   23    8    0.013863   -0.000000
    0    0    0   24    8    0.000001    0.000000
    0    0    0   25    8   -0.000000    0.000000
    0    0    0   26    8   -0.000000   -0.000000
    0    0    0   27    8    0.034778    0.000000
    0    0    0   28    8   -0.000687   -0.000000
    0    0    0   29    8   -0.000000   -0.000000
    0    0    0   30    8    0.000001    0.000000
    0    0    0   31    8   -0.000001   -0.000000
    0    0    0   32    8   -0.022068   -0.000000
    0    0    0   33    8    0.013874    0.000000
    0    0    0   34    8    0.000000    0.000000
    0    0    0   35    8   -0.000000   -0.000000
    0    0    0   36    8   -0.000001    0.000000
    0    0    0   37    8    0.022076    0.000000
    0    0    0   38    8    0.013873   -0.000000
    0    0    0   39    8    0.000000   -0.000000
    0    0    0   40    8    0.000000   -0.000000
    0    0    0   41    8    0.000001   -0.000000
    0    0    0   42    8    0.202167    0.000000
    0    0    0   43    8   -0.038092    0.000000
    0    0    0   44    8    0.000002    0.000000
    0    0    0   45    8    0.000002    0.000000
    0    0    0   46    8    0.000001    0.000000
    0    0    0   47    8   -0.202151   -0.000000
    0    0    0   48    8   -0.038060   -0.000000
    0    0    0   49    8    0.000001    0.000000
    0    0    0   50    8   -0.000002    0.000000
    0    0    0   51    8    0.000000    0.000000
    0    0    0   52    8    0.165629   -0.000000
    0    0    0   53    8   -0.038048    0.000000
    0    0    0   54    8   -0.000000    0.000000
    0    0    0   55    8   -0.000000   -0.000000
    0    0    0   56    8    0.000001   -0.000000
    0    0    0   57    8    0.000002    0.000000
    0    0    0   58    8   -0.024253    0.000000
    0    0    0   59    8    0.000000    0.000000
    0    0    0   60    8   -0.000000    0.000000
    0    0    0   61    8   -0.000000   -0.000000
    0    0    0   62    8   -0.034768   -0.000000
    0    0    0   63    8   -0.000689   -0.000000
    0    0    0   64    8   -0.000000    0.000000
    0    0    0   65    8   -0.000001   -0.000000
    0    0    0   66    8    0.000001    0.000000
    0    0    0   67    8   -0.165635    0.000000
    0    0    0   68    8   -0.038086    0.000000
    0    0    0   69    8    0.000000   -0.000000
    0    0    0   70    8    0.000001    0.000000
    0    0    0   71    8    0.000000   -0.000000
    0    0    0   72    8    0.022174    0.000000
    0    0    0   73    8    0.013870    0.000000
    0    0    0   74    8    0.000001   -0.000000
    0    0    0   75    8    0.000000   -0.000000
    0    0    0   76    8   -0.000001    0.000000
    0    0    0   77    8   -0.000011   -0.000000
    0    0    0   78    8   -0.024225    0.000000
    0    0    0   79    8   -0.000000   -0.000000
    0    0    0   80    8    0.000000   -0.000000
    0    0    0   81    8    0.418905    0.000000
    0    0    0   82    8    0.808020    0.000000
    0    0    0   83    8    0.011800    0.000000
    0    0    0   84    8    0.418906   -0.000000
    0    0    0   85    8   -0.808018    0.000000
    0    0    0   86    8   -0.011802   -0.000000
    0    0    0   87    8    0.418415   -0.000000
    0    0    0   88    8   -0.807974    0.000000
    0    0    0   89    8    0.011652   -0.000000
    0    0    0   90    8    0.418414   -0.000000
    0    0    0   91    8    0.807970    0.000000
    0    0    0   92    8   -0.011653   -0.000000
    0    0    0   93    8   -0.043546    0.000000
    0    0    0   94    8   -0.027092   -0.000000
    0    0    0   95    8    0.004829    0.000000
    0    0    0   96    8   -0.043556    0.000000
    0    0    0   97    8    0.027091   -0.000000
    0    0    0   98    8   -0.004830   -0.000000
    0    0    0   99    8   -0.043538   -0.000000
    0    0    0  100    8    0.027093    0.000000
    0    0    0  101    8    0.004809    0.000000
    0    0    0  102    8   -0.043548    0.000000
    0    0    0  103    8   -0.027092   -0.000000
    0    0    0  104    8   -0.004811   -0.000000
    0    0    0  105    8    0.000084   -0.000000
    0    0    0  106    8    0.000001    0.000000
    0    0    0  107    8    0.009547    0.000000
    0    0    0  108    8    0.000084    0.000000
    0    0    0  109    8   -0.000002    0.000000
    0    0    0  110    8   -0.009544   -0.000000
    0    0    0  111    8    0.013802    0.000000
    0    0    0  112    8   -0.032702    0.000000
    0    0    0  113    8   -0.031345    0.000000
    0    0    0  114    8    0.013812   -0.000000
    0    0    0  115    8    0.032702   -0.000000
    0    0    0  116    8    0.031345    0.000000
    0    0    0  117    8   -0.011636   -0.000000
    0    0    0  118    8    0.021571    0.000000
    0    0    0  119    8    0.002632   -0.000000
    0    0    0  120    8   -0.011627    0.000000
    0    0    0  121    8   -0.021571    0.000000
    0    0    0  122    8   -0.002633   -0.000000
    0    0    0  123    8    0.019046   -0.000000
    0    0    0  124    8    0.000008    0.000000
    0    0    0  125    8    0.010894   -0.000000
    0    0    0  126    8    0.019047    0.000000
    0    0    0  127    8   -0.000008   -0.000000
    0    0    0  128    8   -0.010894    0.000000
    0    0    0  129    8   -0.011645   -0.000000
    0    0    0  130    8   -0.021588   -0.000000
    0    0    0  131    8    0.002631    0.000000
    0    0    0  132    8   -0.011635    0.000000
    0    0    0  133    8    0.021589    0.000000
    0    0    0  134    8   -0.002632    0.000000
    0    0    0  135    8   -0.855766   -0.000000
    0    0    0  136    8    0.000701    0.000000
    0    0    0  137    8   -1.370838   -0.000000
    0    0    0  138    8   -0.855756   -0.000000
    0    0    0  139    8   -0.000702    0.000000
    0    0    0  140    8    1.370839    0.000000
    0    0    0  141    8    0.029321    0.000000
    0    0    0  142    8   -0.000752    0.000000
    0    0    0  143    8   -0.019100   -0.000000
    0    0    0  144    8    0.029320    0.000000
    0    0    0  145    8    0.000753   -0.000000
    0    0    0  146    8    0.019100   -0.000000
    0    0    0  147    8   -0.009348    0.000000
    0    0    0  148    8   -0.001379   -0.000000
    0    0    0  149    8    0.008965    0.000000
    0    0    0  150    8   -0.009349   -0.000000
    0    0    0  151    8    0.001380    0.000000
    0    0    0  152    8   -0.008963   -0.000000
    0    0    0  153    8   -0.009346    0.000000
    0    0    0  154    8    0.001377    0.000000
    0    0    0  155    8    0.008963    0.000000
    0    0    0  156    8   -0.009347    0.000000
    0    0    0  157    8   -0.001378   -0.000000
    0    0    0  158    8   -0.008962   -0.000000
    0    0    0  159    8    0.024137    0.000000
    0    0    0  160    8   -0.000004   -0.000000
    0    0    0  161    8    0.040222   -0.000000
    0    0    0  162    8    0.024119    0.000000
    0    0    0  163    8    0.000004   -0.000000
    0    0    0  164    8   -0.040223    0.000000
    0    0    0  165    8    0.029324    0.000000
    0    0    0  166    8    0.000749   -0.000000
    0    0    0  167    8   -0.019109   -0.000000
    0    0    0  168    8    0.029322   -0.000000
    0    0    0  169    8   -0.000750    0.000000
    0    0    0  170    8    0.019109    0.000000
    0    0    0  171    8    0.013797   -0.000000
    0    0    0  172    8    0.032706   -0.000000
    0    0    0  173    8   -0.031343   -0.000000
    0    0    0  174    8    0.013807    0.000000
    0    0    0  175    8   -0.032706    0.000000
    0    0    0  176    8    0.031343   -0.000000
    0    0    0    1    9    0.354945   -0.000000
    0    0    0    2    9    0.000001   -0.000000
    0    0    0    3    9   -0.000001   -0.000000
    0    0    0    4    9   -0.242425    0.000000
    0    0    0    5    9    0.161173    0.000000
    0    0    0    6    9   -0.035780    0.000000
    0    0    0    7    9    0.000001   -0.000000
    0    0    0    8    9    0.000002   -0.000000
    0    0    0    9    9   -0.847083    0.000000
    0    0    0   10    9   -0.003358    0.000000
    0    0    0   11    9    0.344667   -0.000000
    0    0    0   12    9   -0.000001   -0.000000
    0    0    0   13    9   -0.000000   -0.000000
    0    0    0   14    9   -0.233359    0.000000
    0    0    0   15    9   -0.144164   -0.000000
    0    0    0   16    9   -0.061520    0.000000
    0    0    0   17    9    0.000000    0.000000
    0    0    0   18    9   -0.000001   -0.000000
    0    0    0   19    9    0.029927   -0.000000
    0    0    0   20    9    0.007810    0.000000
    0    0    0   21    9    0.012094    0.000000
    0    0    0   22    9   -0.000001    0.000000
    0    0    0   23    9    0.000000    0.000000
    0    0    0   24    9   -0.004329    0.000000
    0    0    0   25    9    0.016777    0.000000
    0    0    0   26    9    0.025864    0.000000
    0    0    0   27    9    0.000001   -0.000000
    0    0    0   28    9   -0.000000    0.000000
    0    0    0   29    9    0.052575    0.000000
    0    0    0   30    9   -0.043862   -0.000000
    0    0    0   31    9   -0.006727    0.000000
    0    0    0   32    9   -0.000000   -0.000000
    0    0    0   33    9    0.000001    0.000000
    0    0    0   34    9   -0.004684    0.000000
    0    0    0   35    9    0.029111   -0.000000
    0    0    0   36    9   -0.007416    0.000000
    0    0    0   37    9    0.000000    0.000000
    0    0    0   38    9    0.000001   -0.000000
    0    0    0   39    9   -0.004927    0.000000
    0    0    0   40    9   -0.026845    0.000000
    0    0    0   41    9   -0.156464   -0.000000
    0    0    0   42    9    0.000001    0.000000
    0    0    0   43    9    0.000000    0.000000
    0    0    0   44    9   -0.110279    0.000000
    0    0    0   45    9   -0.237307   -0.000000
    0    0    0   46    9   -0.168820   -0.000000
    0    0    0   47    9   -0.000001   -0.000000
    0    0    0   48    9    0.000000   -0.000000
    0    0    0   49    9   -0.064985   -0.000000
    0    0    0   50    9    0.204778    0.000000
    0    0    0   51    9   -0.389913   -0.000000
    0    0    0   52    9   -0.000000    0.000000
    0    0    0   53    9    0.000002   -0.000000
    0    0    0   54    9   -0.070511   -0.000000
    0    0    0   55    9    0.623189    0.000000
    0    0    0   56    9    0.021567    0.000000
    0    0    0   57    9    0.000000   -0.000000
    0    0    0   58    9   -0.000001   -0.000000
    0    0    0   59    9    0.052460    0.000000
    0    0    0   60    9   -0.000461    0.000000
    0    0    0   61    9    0.028460   -0.000000
    0    0    0   62    9   -0.000001    0.000000
    0    0    0   63    9   -0.000000    0.000000
    0    0    0   64    9    0.055240   -0.000000
    0    0    0   65    9    0.047576    0.000000
    0    0    0   66    9   -0.332721   -0.000000
    0    0    0   67    9   -0.000001   -0.000000
    0    0    0   68    9    0.000001   -0.000000
    0    0    0   69    9   -0.103842    0.000000
    0    0    0   70    9   -0.678430   -0.000000
    0    0    0   71    9    0.010681    0.000000
    0    0    0   72    9    0.000000   -0.000000
    0    0    0   73    9    0.000000   -0.000000
    0    0    0   74    9   -0.005436    0.000000
    0    0    0   75    9   -0.016369   -0.000000
    0    0    0   76    9   -0.016213    0.000000
    0    0    0   77    9    0.000000   -0.000000
    0    0    0   78    9    0.000000    0.000000
    0    0    0   79    9    0.052644   -0.000000
    0    0    0   80    9   -0.000501    0.000000
    0    0    0   81    9   -0.033306    0.000000
    0    0    0   82    9    0.057418   -0.000000
    0    0    0   83    9    0.843922   -0.000000
    0    0    0   84    9    0.033305   -0.000000
    0    0    0   85    9    0.057416   -0.000000
    0    0    0   86    9    0.843920    0.000000
    0    0    0   87    9   -0.063916    0.000000
    0    0    0   88    9   -0.025428    0.000000
    0    0    0   89    9    0.831807    0.000000
    0    0    0   90    9    0.063916   -0.000000
    0    0    0   91    9   -0.025425   -0.000000
    0    0    0   92    9    0.831808   -0.000000
    0    0    0   93    9    0.033109    0.000000
    0    0    0   94    9   -0.020235    0.000000
    0    0    0   95    9   -0.016922   -0.000000
    0    0    0   96    9   -0.033096   -0.000000
    0    0    0   97    9   -0.020234    0.000000
    0    0    0   98    9   -0.016921   -0.000000
    0    0    0   99    9    0.033762    0.000000
    0    0    0  100    9    0.020423   -0.000000
    0    0    0  101    9   -0.017386   -0.000000
    0    0    0  102    9   -0.033749   -0.000000
    0    0    0  103    9    0.020421   -0.000000
    0    0    0  104    9   -0.017385   -0.000000
    0    0    0  105    9    0.009249   -0.000000
    0    0    0  106    9    0.000028   -0.000000
    0    0    0  107    9    0.000592   -0.000000
    0    0    0  108    9   -0.009236    0.000000
    0    0    0  109    9    0.000028    0.000000
    0    0    0  110    9    0.000590   -0.000000
    0    0    0  111    9   -0.026699    0.000000
    0    0    0  112    9   -0.002137   -0.000000
    0    0    0  113    9   -0.016479    0.000000
    0    0    0  114    9    0.026699   -0.000000
    0    0    0  115    9   -0.002136   -0.000000
    0    0    0  116    9   -0.016479    0.000000
    0    0    0  117    9   -0.053193    0.000000
    0    0    0  118    9   -0.041732    0.000000
    0    0    0  119    9   -0.021398   -0.000000
    0    0    0  120    9    0.053190   -0.000000
    0    0    0  121    9   -0.041732    0.000000
    0    0    0  122    9   -0.021398   -0.000000
    0    0    0  123    9    0.012905   -0.000000
    0    0    0  124    9    0.000686    0.000000
    0    0    0  125    9   -0.002705    0.000000
    0    0    0  126    9   -0.012900    0.000000
    0    0    0  127    9    0.000686   -0.000000
    0    0    0  128    9   -0.002705    0.000000
    0    0    0  129    9   -0.046018   -0.000000
    0    0    0  130    9    0.034748   -0.000000
    0    0    0  131    9   -0.017313   -0.000000
    0    0    0  132    9    0.046016    0.000000
    0    0    0  133    9    0.034748   -0.000000
    0    0    0  134    9   -0.017313   -0.000000
    0    0    0  135    9    0.764732    0.000000
    0    0    0  136    9    0.026946   -0.000000
    0    0    0  137    9    0.188689    0.000000
    0    0    0  138    9   -0.764734   -0.000000
    0    0    0  139    9    0.026945   -0.000000
    0    0    0  140    9    0.188695    0.000000
    0    0    0  141    9   -0.045340    0.000000
    0    0    0  142    9    0.027493    0.000000
    0    0    0  143    9    0.008374    0.000000
    0    0    0  144    9    0.045348   -0.000000
    0    0    0  145    9    0.027493   -0.000000
    0    0    0  146    9    0.008374    0.000000
    0    0    0  147    9   -0.009145   -0.000000
    0    0    0  148    9    0.005679    0.000000
    0    0    0  149    9    0.018762    0.000000
    0    0    0  150    9    0.009158    0.000000
    0    0    0  151    9    0.005677    0.000000
    0    0    0  152    9    0.018762    0.000000
    0    0    0  153    9   -0.009962    0.000000
    0    0    0  154    9   -0.005261   -0.000000
    0    0    0  155    9    0.018233    0.000000
    0    0    0  156    9    0.009976    0.000000
    0    0    0  157    9   -0.005260   -0.000000
    0    0    0  158    9    0.018232    0.000000
    0    0    0  159    9    0.146546    0.000000
    0    0    0  160    9    0.000096   -0.000000
    0    0    0  161    9   -0.187821   -0.000000
    0    0    0  162    9   -0.146532   -0.000000
    0    0    0  163    9    0.000096   -0.000000
    0    0    0  164    9   -0.187821   -0.000000
    0    0    0  165    9   -0.047810    0.000000
    0    0    0  166    9   -0.029176    0.000000
    0    0    0  167    9    0.009323    0.000000
    0    0    0  168    9    0.047817   -0.000000
    0    0    0  169    9   -0.029176    0.000000
    0    0    0  170    9    0.009323    0.000000
    0    0    0  171    9   -0.029839   -0.000000
    0    0    0  172    9    0.001823    0.000000
    0    0    0  173    9   -0.018527    0.000000
    0    0    0  174    9    0.029838   -0.000000
    0    0    0  175    9    0.001823    0.000000
    0    0    0  176    9   -0.018526    0.000000
    0    0    0    1   10    0.108294   -0.000000
    0    0    0    2   10   -0.000001   -0.000000
    0    0    0    3   10   -0.000000   -0.000000
    0    0    0    4   10   -0.108748   -0.000000
    0    0    0    5   10    0.254908    0.000000
    0    0    0    6   10   -0.009061   -0.000000
    0    0    0    7   10    0.000001    0.000000
    0    0    0    8   10    0.000001    0.000000
    0    0    0    9   10   -0.003358   -0.000000
    0    0    0   10   10   -0.830272   -0.000000
    0    0    0   11   10   -0.245890   -0.000000
    0    0    0   12   10   -0.000000    0.000000
    0    0    0   13   10    0.000000    0.000000
    0    0    0   14   10    0.196734    0.000000
[...]
    0    0    0  130  174   -0.023461   -0.000000
    0    0    0  131  174   -0.104428    0.000000
    0    0    0  132  174   -0.152105   -0.000000
    0    0    0  133  174   -0.048056   -0.000000
    0    0    0  134  174   -0.038321    0.000000
    0    0    0  135  174    0.001685   -0.000000
    0    0    0  136  174    0.023160    0.000000
    0    0    0  137  174   -0.104482    0.000000
    0    0    0  138  174   -0.151816    0.000000
    0    0    0  139  174    0.047677    0.000000
    0    0    0  140  174   -0.038292   -0.000000
    0    0    0  141  174   -0.006951   -0.000000
    0    0    0  142  174   -0.021110   -0.000000
    0    0    0  143  174   -0.012171   -0.000000
    0    0    0  144  174    0.025547   -0.000000
    0    0    0  145  174   -0.029806   -0.000000
    0    0    0  146  174   -0.016485   -0.000000
    0    0    0  147  174   -0.005251   -0.000000
    0    0    0  148  174   -0.000016   -0.000000
    0    0    0  149  174   -0.008180   -0.000000
    0    0    0  150  174   -0.029658    0.000000
    0    0    0  151  174   -0.000026   -0.000000
    0    0    0  152  174   -0.004622   -0.000000
    0    0    0  153  174    0.003989   -0.000000
    0    0    0  154  174   -0.103123   -0.000000
    0    0    0  155  174    0.027313    0.000000
    0    0    0  156  174   -0.151503    0.000000
    0    0    0  157  174   -0.044216    0.000000
    0    0    0  158  174   -0.024895   -0.000000
    0    0    0  159  174   -0.006953   -0.000000
    0    0    0  160  174    0.021104    0.000000
    0    0    0  161  174   -0.012163   -0.000000
    0    0    0  162  174    0.025547    0.000000
    0    0    0  163  174    0.029804    0.000000
    0    0    0  164  174   -0.016475    0.000000
    0    0    0  165  174    0.001868    0.000000
    0    0    0  166  174   -0.077616   -0.000000
    0    0    0  167  174    0.073147    0.000000
    0    0    0  168  174   -0.151965    0.000000
    0    0    0  169  174    0.002598   -0.000000
    0    0    0  170  174    0.040258   -0.000000
    0    0    0  171  174    1.039106   -0.000000
    0    0    0  172  174   -0.000338   -0.000000
    0    0    0  173  174   -0.013369   -0.000000
    0    0    0  174  174   -3.104684    0.000000
    0    0    0  175  174   -0.000289   -0.000000
    0    0    0  176  174   -0.007793   -0.000000
    0    0    0    1  175    0.011549    0.000000
    0    0    0    2  175   -0.010380   -0.000000
    0    0    0    3  175   -0.001379   -0.000000
    0    0    0    4  175   -0.005530   -0.000000
    0    0    0    5  175    0.006681   -0.000000
    0    0    0    6  175   -0.000710   -0.000000
    0    0    0    7  175   -0.000740    0.000000
    0    0    0    8  175   -0.032706   -0.000000
    0    0    0    9  175    0.001823   -0.000000
    0    0    0   10  175   -0.006739    0.000000
    0    0    0   11  175    0.001490    0.000000
    0    0    0   12  175   -0.000756    0.000000
    0    0    0   13  175    0.032712    0.000000
    0    0    0   14  175   -0.001922    0.000000
    0    0    0   15  175   -0.006646    0.000000
    0    0    0   16  175   -0.010789    0.000000
    0    0    0   17  175   -0.010383   -0.000000
    0    0    0   18  175    0.001377    0.000000
    0    0    0   19  175    0.005259    0.000000
    0    0    0   20  175    0.008031   -0.000000
    0    0    0   21  175    0.006510    0.000000
    0    0    0   22  175    0.011773   -0.000000
    0    0    0   23  175    0.000755   -0.000000
    0    0    0   24  175    0.028721   -0.000000
    0    0    0   25  175   -0.024661   -0.000000
    0    0    0   26  175    0.024379   -0.000000
    0    0    0   27  175    0.034461    0.000000
    0    0    0   28  175    0.027084   -0.000000
    0    0    0   29  175   -0.020456    0.000000
    0    0    0   30  175    0.002409    0.000000
    0    0    0   31  175    0.001108   -0.000000
    0    0    0   32  175   -0.007886   -0.000000
    0    0    0   33  175    0.000003    0.000000
    0    0    0   34  175   -0.000323    0.000000
    0    0    0   35  175    0.023108    0.000000
    0    0    0   36  175    0.092043   -0.000000
    0    0    0   37  175   -0.027352    0.000000
    0    0    0   38  175   -0.021593   -0.000000
    0    0    0   39  175   -0.036734   -0.000000
    0    0    0   40  175   -0.125627    0.000000
    0    0    0   41  175   -0.048012   -0.000000
    0    0    0   42  175   -0.485333    0.000000
    0    0    0   43  175   -0.000251   -0.000000
    0    0    0   44  175    0.013793    0.000000
    0    0    0   45  175    0.914019    0.000000
    0    0    0   46  175   -0.092618    0.000000
    0    0    0   47  175   -0.027355   -0.000000
    0    0    0   48  175    0.021576    0.000000
    0    0    0   49  175    0.036939    0.000000
    0    0    0   50  175   -0.125342    0.000000
    0    0    0   51  175   -0.000040    0.000000
    0    0    0   52  175   -0.009491   -0.000000
    0    0    0   53  175   -0.000002    0.000000
    0    0    0   54  175    0.000014    0.000000
    0    0    0   55  175    0.000868   -0.000000
    0    0    0   56  175   -0.024369    0.000000
    0    0    0   57  175    0.034450    0.000000
    0    0    0   58  175   -0.027091    0.000000
    0    0    0   59  175    0.020443   -0.000000
    0    0    0   60  175    0.002357    0.000000
    0    0    0   61  175   -0.522413    0.000000
    0    0    0   62  175    0.915738   -0.000000
    0    0    0   63  175   -0.807943    0.000000
    0    0    0   64  175    0.043546   -0.000000
    0    0    0   65  175    0.542224   -0.000000
    0    0    0   66  175   -0.006436   -0.000000
    0    0    0   67  175    0.011793    0.000000
    0    0    0   68  175   -0.000747    0.000000
    0    0    0   69  175   -0.028708    0.000000
    0    0    0   70  175   -0.024678    0.000000
    0    0    0   71  175    0.000129   -0.000000
    0    0    0   72  175    0.010652    0.000000
    0    0    0   73  175   -0.000002   -0.000000
    0    0    0   74  175   -0.000023   -0.000000
    0    0    0   75  175    0.002184    0.000000
    0    0    0   76  175    0.524207    0.000000
    0    0    0   77  175    0.915773    0.000000
    0    0    0   78  175    0.808032    0.000000
    0    0    0   79  175   -0.044382    0.000000
    0    0    0   80  175    0.540524    0.000000
    0    0    0   81  175   -0.007427    0.000000
    0    0    0   82  175   -0.001422    0.000000
    0    0    0   83  175   -0.003324   -0.000000
    0    0    0   84  175    0.004797   -0.000000
    0    0    0   85  175    0.026157    0.000000
    0    0    0   86  175   -0.062598   -0.000000
    0    0    0   87  175    0.000001    0.000000
    0    0    0   88  175    0.011551   -0.000000
    0    0    0   89  175    0.000011   -0.000000
    0    0    0   90  175    0.000005   -0.000000
    0    0    0   91  175   -0.021459   -0.000000
    0    0    0   92  175    0.000004    0.000000
    0    0    0   93  175    0.007440   -0.000000
    0    0    0   94  175   -0.001431    0.000000
    0    0    0   95  175    0.003328    0.000000
    0    0    0   96  175   -0.004814    0.000000
    0    0    0   97  175    0.026137    0.000000
    0    0    0   98  175    0.062585    0.000000
    0    0    0   99  175    0.000002    0.000000
    0    0    0  100  175    0.011553    0.000000
    0    0    0  101  175   -0.000005    0.000000
    0    0    0  102  175   -0.000011   -0.000000
    0    0    0  103  175   -0.021461   -0.000000
    0    0    0  104  175    0.000013    0.000000
    0    0    0  105  175    0.023224    0.000000
    0    0    0  106  175    0.081306    0.000000
    0    0    0  107  175   -0.043404   -0.000000
    0    0    0  108  175   -0.047843   -0.000000
    0    0    0  109  175    0.141602    0.000000
    0    0    0  110  175    0.474678   -0.000000
    0    0    0  111  175    0.103143   -0.000000
    0    0    0  112  175    0.025499    0.000000
    0    0    0  113  175    0.008128   -0.000000
    0    0    0  114  175   -0.044260    0.000000
    0    0    0  115  175    0.844463   -0.000000
    0    0    0  116  175   -0.071780    0.000000
    0    0    0  117  175   -0.021149   -0.000000
    0    0    0  118  175    0.004898    0.000000
    0    0    0  119  175    0.004072   -0.000000
    0    0    0  120  175    0.029844    0.000000
    0    0    0  121  175   -0.013957   -0.000000
    0    0    0  122  175   -0.004367   -0.000000
    0    0    0  123  175    0.021123    0.000000
    0    0    0  124  175    0.004902    0.000000
    0    0    0  125  175   -0.004079   -0.000000
    0    0    0  126  175   -0.029816   -0.000000
    0    0    0  127  175   -0.013949   -0.000000
    0    0    0  128  175    0.004373    0.000000
    0    0    0  129  175   -0.077545    0.000000
    0    0    0  130  175    0.081236   -0.000000
    0    0    0  131  175   -0.021041   -0.000000
    0    0    0  132  175   -0.002692   -0.000000
    0    0    0  133  175    0.141464    0.000000
    0    0    0  134  175    0.334124   -0.000000
    0    0    0  135  175    0.077683   -0.000000
    0    0    0  136  175    0.081299    0.000000
    0    0    0  137  175    0.020847    0.000000
    0    0    0  138  175    0.002493    0.000000
    0    0    0  139  175    0.141801    0.000000
    0    0    0  140  175   -0.334430    0.000000
    0    0    0  141  175   -0.011409    0.000000
    0    0    0  142  175    0.004907    0.000000
    0    0    0  143  175   -0.003699   -0.000000
    0    0    0  144  175   -0.011079   -0.000000
    0    0    0  145  175   -0.013953   -0.000000
    0    0    0  146  175    0.004590   -0.000000
    0    0    0  147  175   -0.000014    0.000000
    0    0    0  148  175    0.004439    0.000000
    0    0    0  149  175   -0.000005    0.000000
    0    0    0  150  175    0.000024   -0.000000
    0    0    0  151  175    0.135069    0.000000
    0    0    0  152  175   -0.000017   -0.000000
    0    0    0  153  175   -0.103119   -0.000000
    0    0    0  154  175    0.025447    0.000000
    0    0    0  155  175   -0.008140    0.000000
    0    0    0  156  175    0.044219   -0.000000
    0    0    0  157  175    0.844451   -0.000000
    0    0    0  158  175    0.071828   -0.000000
    0    0    0  159  175    0.011402   -0.000000
    0    0    0  160  175    0.004907   -0.000000
    0    0    0  161  175    0.003695    0.000000
    0    0    0  162  175    0.011091    0.000000
    0    0    0  163  175   -0.013941   -0.000000
    0    0    0  164  175   -0.004594    0.000000
    0    0    0  165  175   -0.023286   -0.000000
    0    0    0  166  175    0.081274   -0.000000
    0    0    0  167  175    0.043291   -0.000000
    0    0    0  168  175    0.047848    0.000000
    0    0    0  169  175    0.141614    0.000000
    0    0    0  170  175   -0.474889    0.000000
    0    0    0  171  175    0.000338    0.000000
    0    0    0  172  175   -0.330017   -0.000000
    0    0    0  173  175    0.000147   -0.000000
    0    0    0  174  175   -0.000289    0.000000
    0    0    0  175  175   -2.821600   -0.000000
    0    0    0  176  175    0.000115   -0.000000
    0    0    0    1  176   -0.000901    0.000000
    0    0    0    2  176   -0.001736    0.000000
    0    0    0    3  176   -0.008960   -0.000000
    0    0    0    4  176    0.018501    0.000000
    0    0    0    5  176   -0.009011    0.000000
    0    0    0    6  176   -0.009542   -0.000000
    0    0    0    7  176    0.007169   -0.000000
    0    0    0    8  176    0.031343    0.000000
    0    0    0    9  176   -0.018526   -0.000000
    0    0    0   10  176   -0.034681   -0.000000
    0    0    0   11  176   -0.012997    0.000000
    0    0    0   12  176   -0.007185    0.000000
    0    0    0   13  176    0.031341   -0.000000
    0    0    0   14  176   -0.017424   -0.000000
    0    0    0   15  176    0.033944    0.000000
    0    0    0   16  176   -0.000023    0.000000
    0    0    0   17  176    0.001738    0.000000
    0    0    0   18  176   -0.008963    0.000000
    0    0    0   19  176    0.018228    0.000000
    0    0    0   20  176    0.009628   -0.000000
    0    0    0   21  176    0.006171    0.000000
    0    0    0   22  176    0.040095   -0.000000
    0    0    0   23  176    0.019114   -0.000000
    0    0    0   24  176    0.009042   -0.000000
    0    0    0   25  176   -0.013101   -0.000000
    0    0    0   26  176    0.017825    0.000000
    0    0    0   27  176   -0.012656    0.000000
    0    0    0   28  176   -0.004822   -0.000000
    0    0    0   29  176   -0.017251   -0.000000
    0    0    0   30  176    0.007595    0.000000
    0    0    0   31  176   -0.010053   -0.000000
    0    0    0   32  176   -0.000005   -0.000000
    0    0    0   33  176   -0.010896    0.000000
    0    0    0   34  176   -0.002663    0.000000
    0    0    0   35  176    0.000459    0.000000
    0    0    0   36  176    0.051530    0.000000
    0    0    0   37  176   -0.022184   -0.000000
    0    0    0   38  176   -0.002625   -0.000000
    0    0    0   39  176   -0.018471   -0.000000
    0    0    0   40  176   -0.072080    0.000000
    0    0    0   41  176   -0.665919   -0.000000
    0    0    0   42  176    0.000075    0.000000
    0    0    0   43  176    1.370840    0.000000
    0    0    0   44  176    0.190965    0.000000
    0    0    0   45  176   -0.037184    0.000000
    0    0    0   46  176    0.051881    0.000000
    0    0    0   47  176    0.022188   -0.000000
    0    0    0   48  176   -0.002624   -0.000000
    0    0    0   49  176   -0.018599   -0.000000
    0    0    0   50  176    0.071838   -0.000000
    0    0    0   51  176   -0.000528   -0.000000
    0    0    0   52  176   -0.000003   -0.000000
    0    0    0   53  176   -0.009545    0.000000
    0    0    0   54  176    0.000594    0.000000
    0    0    0   55  176   -0.000038    0.000000
    0    0    0   56  176    0.017844   -0.000000
    0    0    0   57  176    0.012664   -0.000000
    0    0    0   58  176   -0.004821   -0.000000
    0    0    0   59  176   -0.017250   -0.000000
    0    0    0   60  176   -0.007539   -0.000000
    0    0    0   61  176   -0.025463   -0.000000
    0    0    0   62  176   -0.817794   -0.000000
    0    0    0   63  176   -0.011827   -0.000000
    0    0    0   64  176    0.838242   -0.000000
    0    0    0   65  176    0.210135   -0.000001
    0    0    0   66  176    0.006143    0.000000
    0    0    0   67  176   -0.040083    0.000000
    0    0    0   68  176    0.019102    0.000000
    0    0    0   69  176    0.009049   -0.000000
    0    0    0   70  176    0.013128    0.000000
    0    0    0   71  176   -0.030291   -0.000000
    0    0    0   72  176   -0.000008    0.000000
    0    0    0   73  176   -0.040215    0.000000
    0    0    0   74  176   -0.187826   -0.000000
    0    0    0   75  176   -0.001327   -0.000000
    0    0    0   76  176   -0.026063   -0.000000
    0    0    0   77  176    0.818009   -0.000000
    0    0    0   78  176   -0.011690    0.000000
    0    0    0   79  176    0.838649   -0.000000
    0    0    0   80  176   -0.208994    0.000000
    0    0    0   81  176   -0.004349   -0.000000
    0    0    0   82  176   -0.003320    0.000000
    0    0    0   83  176    0.002447   -0.000000
    0    0    0   84  176    0.000583   -0.000000
    0    0    0   85  176   -0.062611   -0.000000
    0    0    0   86  176    0.099395   -0.000000
    0    0    0   87  176    0.013105    0.000000
    0    0    0   88  176   -0.000002   -0.000000
    0    0    0   89  176    0.003066    0.000000
    0    0    0   90  176    0.013206   -0.000000
    0    0    0   91  176    0.000006    0.000000
    0    0    0   92  176   -0.011266   -0.000000
    0    0    0   93  176   -0.004334   -0.000000
    0    0    0   94  176    0.003316   -0.000000
    0    0    0   95  176    0.002442    0.000000
    0    0    0   96  176    0.000562    0.000000
    0    0    0   97  176    0.062612   -0.000000
    0    0    0   98  176    0.099401   -0.000000
    0    0    0   99  176   -0.024600   -0.000000
    0    0    0  100  176   -0.000008    0.000000
    0    0    0  101  176    0.003066   -0.000000
    0    0    0  102  176    0.035137    0.000000
    0    0    0  103  176   -0.000019    0.000000
    0    0    0  104  176   -0.011276   -0.000000
    0    0    0  105  176    0.104517    0.000000
    0    0    0  106  176   -0.020883    0.000000
    0    0    0  107  176    0.043735   -0.000000
    0    0    0  108  176   -0.038350   -0.000000
    0    0    0  109  176    0.334410   -0.000000
    0    0    0  110  176    0.610350    0.000000
    0    0    0  111  176   -0.027345    0.000000
    0    0    0  112  176   -0.008167    0.000000
    0    0    0  113  176    0.099870   -0.000000
    0    0    0  114  176   -0.024848    0.000000
    0    0    0  115  176    0.071998    0.000000
    0    0    0  116  176   -0.093089   -0.000000
    0    0    0  117  176    0.012168    0.000000
    0    0    0  118  176    0.003702   -0.000000
    0    0    0  119  176    0.009343   -0.000000
    0    0    0  120  176   -0.016481    0.000000
    0    0    0  121  176   -0.004588   -0.000000
    0    0    0  122  176   -0.019640    0.000000
    0    0    0  123  176    0.012170    0.000000
    0    0    0  124  176   -0.003691    0.000000
    0    0    0  125  176    0.009343   -0.000000
    0    0    0  126  176   -0.016476   -0.000000
    0    0    0  127  176    0.004585    0.000000
    0    0    0  128  176   -0.019636    0.000000
    0    0    0  129  176   -0.073149    0.000000
    0    0    0  130  176   -0.043251   -0.000000
    0    0    0  131  176    0.043691   -0.000000
    0    0    0  132  176    0.040212    0.000000
    0    0    0  133  176    0.474911    0.000000
    0    0    0  134  176    0.610314    0.000000
    0    0    0  135  176   -0.073021    0.000000
    0    0    0  136  176    0.043397    0.000000
    0    0    0  137  176    0.043775   -0.000000
    0    0    0  138  176    0.040261   -0.000000
    0    0    0  139  176   -0.474901   -0.000000
    0    0    0  140  176    0.610127    0.000000
    0    0    0  141  176   -0.006482   -0.000000
    0    0    0  142  176   -0.004068    0.000000
    0    0    0  143  176    0.009349   -0.000000
    0    0    0  144  176   -0.005739    0.000000
    0    0    0  145  176    0.004374    0.000000
    0    0    0  146  176   -0.019636    0.000000
    0    0    0  147  176    0.008182    0.000000
    0    0    0  148  176   -0.000000   -0.000000
    0    0    0  149  176   -0.003817    0.000000
    0    0    0  150  176   -0.004630   -0.000000
    0    0    0  151  176    0.000018   -0.000000
    0    0    0  152  176   -0.009796   -0.000000
    0    0    0  153  176   -0.027329   -0.000000
    0    0    0  154  176    0.008139   -0.000000
    0    0    0  155  176    0.099891    0.000000
    0    0    0  156  176   -0.024859   -0.000000
    0    0    0  157  176   -0.071798   -0.000000
    0    0    0  158  176   -0.093042   -0.000000
    0    0    0  159  176   -0.006483   -0.000000
    0    0    0  160  176    0.004068    0.000000
    0    0    0  161  176    0.009346    0.000000
    0    0    0  162  176   -0.005730    0.000000
    0    0    0  163  176   -0.004378    0.000000
    0    0    0  164  176   -0.019632    0.000000
    0    0    0  165  176    0.104464    0.000000
    0    0    0  166  176    0.020923   -0.000000
    0    0    0  167  176    0.043724    0.000000
    0    0    0  168  176   -0.038337   -0.000000
    0    0    0  169  176   -0.334308   -0.000000
    0    0    0  170  176    0.610226   -0.000000
    0    0    0  171  176    0.013369   -0.000000
    0    0    0  172  176    0.000147   -0.000000
    0    0    0  173  176   -0.328458    0.000000
    0    0    0  174  176   -0.007793    0.000000
    0    0    0  175  176    0.000115    0.000000
    0    0    0  176  176   -2.820883   -0.000000
