 
             +---------------------------------------------------+
             |                                                   |
             |                   WANNIER90                       |
             |                                                   |
             +---------------------------------------------------+
             |                                                   |
             |        Welcome to the Maximally-Localized         |
             |        Generalized Wannier Functions code         |
             |            http://www.wannier.org                 |
             |                                                   |
             |                                                   |
             |  Wannier90 Developer Group:                       |
             |    Giovanni Pizzi    (EPFL)                       |
             |    Valerio Vitale    (Cambridge)                  |
             |    David Vanderbilt  (Rutgers University)         |
             |    Nicola Marzari    (EPFL)                       |
             |    Ivo Souza         (Universidad del Pais Vasco) |
             |    Arash A. Mostofi  (Imperial College London)    |
             |    Jonathan R. Yates (University of Oxford)       |
             |                                                   |
             |  For the full list of Wannier90 3.x authors,      |
             |  please check the code documentation and the      |
             |  README on the GitHub page of the code            |
             |                                                   |
             |                                                   |
             |  Please cite                                      |
             |                                                   |
             |  [ref] "Wannier90 as a community code:            |
             |        new features and applications",            |
             |        G. Pizzi et al., J. Phys. Cond. Matt. 32,  |
             |        165902 (2020).                             |
             |        http://doi.org/10.1088/1361-648X/ab51ff    |
             |                                                   |
             |  in any publications arising from the use of      |
             |  this code. For the method please cite            |
             |                                                   |
             |  [ref] "Maximally Localized Generalised Wannier   |
             |         Functions for Composite Energy Bands"     |
             |         N. Marzari and D. Vanderbilt              |
             |         Phys. Rev. B 56 12847 (1997)              |
             |                                                   |
             |  [ref] "Maximally Localized Wannier Functions     |
             |         for Entangled Energy Bands"               |
             |         I. Souza, N. Marzari and D. Vanderbilt    |
             |         Phys. Rev. B 65 035109 (2001)             |
             |                                                   |
             |                                                   |
             | Copyright (c) 1996-2020                           |
             |        The Wannier90 Developer Group and          |
             |        individual contributors                    |
             |                                                   |
             |      Release: 3.1.0        5th March    2020      |
             |                                                   |
             | This program is free software; you can            |
             | redistribute it and/or modify it under the terms  |
             | of the GNU General Public License as published by |
             | the Free Software Foundation; either version 2 of |
             | the License, or (at your option) any later version|
             |                                                   |
             | This program is distributed in the hope that it   |
             | will be useful, but WITHOUT ANY WARRANTY; without |
             | even the implied warranty of MERCHANTABILITY or   |
             | FITNESS FOR A PARTICULAR PURPOSE. See the GNU     |
             | General Public License for more details.          |
             |                                                   |
             | You should have received a copy of the GNU General|
             | Public License along with this program; if not,   |
             | write to the Free Software Foundation, Inc.,      |
             | 675 Mass Ave, Cambridge, MA 02139, USA.           |
             |                                                   |
             +---------------------------------------------------+
             |    Execution started on  8Nov2023 at 18:50:56     |
             +---------------------------------------------------+
 
 ******************************************************************************
 * -> Using CODATA 2006 constant values                                       *
 *    (http://physics.nist.gov/cuu/Constants/index.html)                      *
 * -> Using Bohr value from CODATA                                            *
 ******************************************************************************
 

 Running in parallel on  80 CPUs

 
                                    ------
                                    SYSTEM
                                    ------
 
                              Lattice Vectors (Ang)
                    a_1    13.784171   0.000000   0.000000
                    a_2    -6.892085  11.937442   0.000000
                    a_3     0.000000   0.000000  23.631430
 
                   Unit Cell Volume:    3888.49848  (Ang^3)
 
                        Reciprocal-Space Vectors (Ang^-1)
                    b_1     0.455826   0.263171   0.000000
                    b_2     0.000000   0.526343   0.000000
                    b_3     0.000000   0.000000   0.265883
  
 *----------------------------------------------------------------------------*
 |   Site       Fractional Coordinate          Cartesian Coordinate (Ang)     |
 +----------------------------------------------------------------------------+
 | Nb   1   0.00000   0.00000   0.07097   |    0.00000   0.00000   1.67715    |
 | Nb   2   0.25000   0.00000   0.07097   |    3.44604   0.00000   1.67715    |
 | Nb   3   0.50000   0.00000   0.07097   |    6.89209   0.00000   1.67715    |
 | Nb   4   0.75000   0.00000   0.07097   |   10.33813   0.00000   1.67715    |
 | Nb   5   0.75000   0.25000   0.07097   |    8.61511   2.98436   1.67715    |
 | Nb   6   0.75000   0.50000   0.07097   |    6.89209   5.96872   1.67715    |
 | Nb   7   0.75000   0.75000   0.07097   |    5.16906   8.95308   1.67715    |
 | Nb   8   0.50000   0.75000   0.07097   |    1.72302   8.95308   1.67715    |
 | Nb   9   0.25000   0.75000   0.07097   |   -1.72302   8.95308   1.67715    |
 | Nb  10   0.00000   0.75000   0.07097   |   -5.16906   8.95308   1.67715    |
 | Nb  11   0.50000   0.25000   0.07097   |    5.16906   2.98436   1.67715    |
 | Nb  12   0.50000   0.50000   0.07097   |    3.44604   5.96872   1.67715    |
 | Nb  13   0.25000   0.50000   0.07097   |    0.00000   5.96872   1.67715    |
 | Nb  14   0.25000   0.25000   0.07097   |    1.72302   2.98436   1.67715    |
 | Nb  15   0.00000   0.25000   0.07097   |   -1.72302   2.98436   1.67715    |
 | Nb  16   0.00000   0.50000   0.07097   |   -3.44604   5.96872   1.67715    |
 | Se   1   0.16667   0.08333   0.00000   |    1.72302   0.99479   0.00000    |
 | Se   2   0.16667   0.08333   0.14194   |    1.72302   0.99479   3.35430    |
 | Se   3   0.41667   0.08333   0.00000   |    5.16906   0.99479   0.00000    |
 | Se   4   0.41667   0.08333   0.14194   |    5.16906   0.99479   3.35430    |
 | Se   5   0.66667   0.08333   0.00000   |    8.61511   0.99479   0.00000    |
 | Se   6   0.66667   0.08333   0.14194   |    8.61511   0.99479   3.35430    |
 | Se   7   0.91667   0.08333   0.00000   |   12.06115   0.99479   0.00000    |
 | Se   8   0.91667   0.08333   0.14194   |   12.06115   0.99479   3.35430    |
 | Se   9   0.91667   0.33333   0.00000   |   10.33813   3.97915   0.00000    |
 | Se  10   0.91667   0.33333   0.14194   |   10.33813   3.97915   3.35430    |
 | Se  11   0.91667   0.58333   0.00000   |    8.61511   6.96351   0.00000    |
 | Se  12   0.91667   0.58333   0.14194   |    8.61511   6.96351   3.35430    |
 | Se  13   0.91667   0.83333   0.00000   |    6.89209   9.94787   0.00000    |
 | Se  14   0.91667   0.83333   0.14194   |    6.89209   9.94787   3.35430    |
 | Se  15   0.66667   0.83333   0.00000   |    3.44604   9.94787   0.00000    |
 | Se  16   0.66667   0.83333   0.14194   |    3.44604   9.94787   3.35430    |
 | Se  17   0.41667   0.83333   0.00000   |    0.00000   9.94787   0.00000    |
 | Se  18   0.41667   0.83333   0.14194   |    0.00000   9.94787   3.35430    |
 | Se  19   0.16667   0.83333   0.00000   |   -3.44604   9.94787   0.00000    |
 | Se  20   0.16667   0.83333   0.14194   |   -3.44604   9.94787   3.35430    |
 | Se  21   0.66667   0.33333   0.00000   |    6.89209   3.97915   0.00000    |
 | Se  22   0.66667   0.33333   0.14194   |    6.89209   3.97915   3.35430    |
 | Se  23   0.66667   0.58333   0.00000   |    5.16906   6.96351   0.00000    |
 | Se  24   0.66667   0.58333   0.14194   |    5.16906   6.96351   3.35430    |
 | Se  25   0.41667   0.58333   0.00000   |    1.72302   6.96351   0.00000    |
 | Se  26   0.41667   0.58333   0.14194   |    1.72302   6.96351   3.35430    |
 | Se  27   0.41667   0.33333   0.00000   |    3.44604   3.97915   0.00000    |
 | Se  28   0.41667   0.33333   0.14194   |    3.44604   3.97915   3.35430    |
 | Se  29   0.16667   0.33333   0.00000   |    0.00000   3.97915   0.00000    |
 | Se  30   0.16667   0.33333   0.14194   |    0.00000   3.97915   3.35430    |
 | Se  31   0.16667   0.58333   0.00000   |   -1.72302   6.96351   0.00000    |
 | Se  32   0.16667   0.58333   0.14194   |   -1.72302   6.96351   3.35430    |
 *----------------------------------------------------------------------------*
                                -----------
                                PROJECTIONS
                                -----------
  
 +----------------------------------------------------------------------------+
 |     Frac. Coord.   l mr  r        z-axis               x-axis          Z/a |
 +----------------------------------------------------------------------------+
 |  0.00  0.00  0.07  2  1  1  0.000  0.000  1.000  1.000  0.000  0.000   1.0 |
 |  0.00  0.00  0.07  2  2  1  0.000  0.000  1.000  1.000  0.000  0.000   1.0 |
 |  0.00  0.00  0.07  2  3  1  0.000  0.000  1.000  1.000  0.000  0.000   1.0 |
 |  0.00  0.00  0.07  2  4  1  0.000  0.000  1.000  1.000  0.000  0.000   1.0 |
 |  0.00  0.00  0.07  2  5  1  0.000  0.000  1.000  1.000  0.000  0.000   1.0 |
 |  0.25  0.00  0.07  2  1  1  0.000  0.000  1.000  1.000  0.000  0.000   1.0 |
 |  0.25  0.00  0.07  2  2  1  0.000  0.000  1.000  1.000  0.000  0.000   1.0 |
 |  0.25  0.00  0.07  2  3  1  0.000  0.000  1.000  1.000  0.000  0.000   1.0 |
 |  0.25  0.00  0.07  2  4  1  0.000  0.000  1.000  1.000  0.000  0.000   1.0 |
 |  0.25  0.00  0.07  2  5  1  0.000  0.000  1.000  1.000  0.000  0.000   1.0 |
 |  0.50  0.00  0.07  2  1  1  0.000  0.000  1.000  1.000  0.000  0.000   1.0 |
 |  0.50  0.00  0.07  2  2  1  0.000  0.000  1.000  1.000  0.000  0.000   1.0 |
 |  0.50  0.00  0.07  2  3  1  0.000  0.000  1.000  1.000  0.000  0.000   1.0 |
 |  0.50  0.00  0.07  2  4  1  0.000  0.000  1.000  1.000  0.000  0.000   1.0 |
 |  0.50  0.00  0.07  2  5  1  0.000  0.000  1.000  1.000  0.000  0.000   1.0 |
 |  0.75  0.00  0.07  2  1  1  0.000  0.000  1.000  1.000  0.000  0.000   1.0 |
 |  0.75  0.00  0.07  2  2  1  0.000  0.000  1.000  1.000  0.000  0.000   1.0 |
 |  0.75  0.00  0.07  2  3  1  0.000  0.000  1.000  1.000  0.000  0.000   1.0 |
 |  0.75  0.00  0.07  2  4  1  0.000  0.000  1.000  1.000  0.000  0.000   1.0 |
 |  0.75  0.00  0.07  2  5  1  0.000  0.000  1.000  1.000  0.000  0.000   1.0 |
 |  0.75  0.25  0.07  2  1  1  0.000  0.000  1.000  1.000  0.000  0.000   1.0 |
 |  0.75  0.25  0.07  2  2  1  0.000  0.000  1.000  1.000  0.000  0.000   1.0 |
 |  0.75  0.25  0.07  2  3  1  0.000  0.000  1.000  1.000  0.000  0.000   1.0 |
 |  0.75  0.25  0.07  2  4  1  0.000  0.000  1.000  1.000  0.000  0.000   1.0 |
 |  0.75  0.25  0.07  2  5  1  0.000  0.000  1.000  1.000  0.000  0.000   1.0 |
 |  0.75  0.50  0.07  2  1  1  0.000  0.000  1.000  1.000  0.000  0.000   1.0 |
 |  0.75  0.50  0.07  2  2  1  0.000  0.000  1.000  1.000  0.000  0.000   1.0 |
 |  0.75  0.50  0.07  2  3  1  0.000  0.000  1.000  1.000  0.000  0.000   1.0 |
 |  0.75  0.50  0.07  2  4  1  0.000  0.000  1.000  1.000  0.000  0.000   1.0 |
 |  0.75  0.50  0.07  2  5  1  0.000  0.000  1.000  1.000  0.000  0.000   1.0 |
 |  0.75  0.75  0.07  2  1  1  0.000  0.000  1.000  1.000  0.000  0.000   1.0 |
 |  0.75  0.75  0.07  2  2  1  0.000  0.000  1.000  1.000  0.000  0.000   1.0 |
 |  0.75  0.75  0.07  2  3  1  0.000  0.000  1.000  1.000  0.000  0.000   1.0 |
 |  0.75  0.75  0.07  2  4  1  0.000  0.000  1.000  1.000  0.000  0.000   1.0 |
 |  0.75  0.75  0.07  2  5  1  0.000  0.000  1.000  1.000  0.000  0.000   1.0 |
 |  0.50  0.75  0.07  2  1  1  0.000  0.000  1.000  1.000  0.000  0.000   1.0 |
 |  0.50  0.75  0.07  2  2  1  0.000  0.000  1.000  1.000  0.000  0.000   1.0 |
 |  0.50  0.75  0.07  2  3  1  0.000  0.000  1.000  1.000  0.000  0.000   1.0 |
 |  0.50  0.75  0.07  2  4  1  0.000  0.000  1.000  1.000  0.000  0.000   1.0 |
 |  0.50  0.75  0.07  2  5  1  0.000  0.000  1.000  1.000  0.000  0.000   1.0 |
 |  0.25  0.75  0.07  2  1  1  0.000  0.000  1.000  1.000  0.000  0.000   1.0 |
 |  0.25  0.75  0.07  2  2  1  0.000  0.000  1.000  1.000  0.000  0.000   1.0 |
 |  0.25  0.75  0.07  2  3  1  0.000  0.000  1.000  1.000  0.000  0.000   1.0 |
 |  0.25  0.75  0.07  2  4  1  0.000  0.000  1.000  1.000  0.000  0.000   1.0 |
 |  0.25  0.75  0.07  2  5  1  0.000  0.000  1.000  1.000  0.000  0.000   1.0 |
 |  0.00  0.75  0.07  2  1  1  0.000  0.000  1.000  1.000  0.000  0.000   1.0 |
 |  0.00  0.75  0.07  2  2  1  0.000  0.000  1.000  1.000  0.000  0.000   1.0 |
 |  0.00  0.75  0.07  2  3  1  0.000  0.000  1.000  1.000  0.000  0.000   1.0 |
 |  0.00  0.75  0.07  2  4  1  0.000  0.000  1.000  1.000  0.000  0.000   1.0 |
 |  0.00  0.75  0.07  2  5  1  0.000  0.000  1.000  1.000  0.000  0.000   1.0 |
 |  0.50  0.25  0.07  2  1  1  0.000  0.000  1.000  1.000  0.000  0.000   1.0 |
 |  0.50  0.25  0.07  2  2  1  0.000  0.000  1.000  1.000  0.000  0.000   1.0 |
 |  0.50  0.25  0.07  2  3  1  0.000  0.000  1.000  1.000  0.000  0.000   1.0 |
 |  0.50  0.25  0.07  2  4  1  0.000  0.000  1.000  1.000  0.000  0.000   1.0 |
 |  0.50  0.25  0.07  2  5  1  0.000  0.000  1.000  1.000  0.000  0.000   1.0 |
 |  0.50  0.50  0.07  2  1  1  0.000  0.000  1.000  1.000  0.000  0.000   1.0 |
 |  0.50  0.50  0.07  2  2  1  0.000  0.000  1.000  1.000  0.000  0.000   1.0 |
 |  0.50  0.50  0.07  2  3  1  0.000  0.000  1.000  1.000  0.000  0.000   1.0 |
 |  0.50  0.50  0.07  2  4  1  0.000  0.000  1.000  1.000  0.000  0.000   1.0 |
 |  0.50  0.50  0.07  2  5  1  0.000  0.000  1.000  1.000  0.000  0.000   1.0 |
 |  0.25  0.50  0.07  2  1  1  0.000  0.000  1.000  1.000  0.000  0.000   1.0 |
 |  0.25  0.50  0.07  2  2  1  0.000  0.000  1.000  1.000  0.000  0.000   1.0 |
 |  0.25  0.50  0.07  2  3  1  0.000  0.000  1.000  1.000  0.000  0.000   1.0 |
 |  0.25  0.50  0.07  2  4  1  0.000  0.000  1.000  1.000  0.000  0.000   1.0 |
 |  0.25  0.50  0.07  2  5  1  0.000  0.000  1.000  1.000  0.000  0.000   1.0 |
 |  0.25  0.25  0.07  2  1  1  0.000  0.000  1.000  1.000  0.000  0.000   1.0 |
 |  0.25  0.25  0.07  2  2  1  0.000  0.000  1.000  1.000  0.000  0.000   1.0 |
 |  0.25  0.25  0.07  2  3  1  0.000  0.000  1.000  1.000  0.000  0.000   1.0 |
 |  0.25  0.25  0.07  2  4  1  0.000  0.000  1.000  1.000  0.000  0.000   1.0 |
 |  0.25  0.25  0.07  2  5  1  0.000  0.000  1.000  1.000  0.000  0.000   1.0 |
 |  0.00  0.25  0.07  2  1  1  0.000  0.000  1.000  1.000  0.000  0.000   1.0 |
 |  0.00  0.25  0.07  2  2  1  0.000  0.000  1.000  1.000  0.000  0.000   1.0 |
 |  0.00  0.25  0.07  2  3  1  0.000  0.000  1.000  1.000  0.000  0.000   1.0 |
 |  0.00  0.25  0.07  2  4  1  0.000  0.000  1.000  1.000  0.000  0.000   1.0 |
 |  0.00  0.25  0.07  2  5  1  0.000  0.000  1.000  1.000  0.000  0.000   1.0 |
 |  0.00  0.50  0.07  2  1  1  0.000  0.000  1.000  1.000  0.000  0.000   1.0 |
 |  0.00  0.50  0.07  2  2  1  0.000  0.000  1.000  1.000  0.000  0.000   1.0 |
 |  0.00  0.50  0.07  2  3  1  0.000  0.000  1.000  1.000  0.000  0.000   1.0 |
 |  0.00  0.50  0.07  2  4  1  0.000  0.000  1.000  1.000  0.000  0.000   1.0 |
 |  0.00  0.50  0.07  2  5  1  0.000  0.000  1.000  1.000  0.000  0.000   1.0 |
 |  0.17  0.08  0.00  1  1  1  0.000  0.000  1.000  1.000  0.000  0.000   1.0 |
 |  0.17  0.08  0.00  1  2  1  0.000  0.000  1.000  1.000  0.000  0.000   1.0 |
 |  0.17  0.08  0.00  1  3  1  0.000  0.000  1.000  1.000  0.000  0.000   1.0 |
 |  0.17  0.08  0.14  1  1  1  0.000  0.000  1.000  1.000  0.000  0.000   1.0 |
 |  0.17  0.08  0.14  1  2  1  0.000  0.000  1.000  1.000  0.000  0.000   1.0 |
 |  0.17  0.08  0.14  1  3  1  0.000  0.000  1.000  1.000  0.000  0.000   1.0 |
 |  0.42  0.08  0.00  1  1  1  0.000  0.000  1.000  1.000  0.000  0.000   1.0 |
 |  0.42  0.08  0.00  1  2  1  0.000  0.000  1.000  1.000  0.000  0.000   1.0 |
 |  0.42  0.08  0.00  1  3  1  0.000  0.000  1.000  1.000  0.000  0.000   1.0 |
 |  0.42  0.08  0.14  1  1  1  0.000  0.000  1.000  1.000  0.000  0.000   1.0 |
 |  0.42  0.08  0.14  1  2  1  0.000  0.000  1.000  1.000  0.000  0.000   1.0 |
 |  0.42  0.08  0.14  1  3  1  0.000  0.000  1.000  1.000  0.000  0.000   1.0 |
 |  0.67  0.08  0.00  1  1  1  0.000  0.000  1.000  1.000  0.000  0.000   1.0 |
 |  0.67  0.08  0.00  1  2  1  0.000  0.000  1.000  1.000  0.000  0.000   1.0 |
 |  0.67  0.08  0.00  1  3  1  0.000  0.000  1.000  1.000  0.000  0.000   1.0 |
 |  0.67  0.08  0.14  1  1  1  0.000  0.000  1.000  1.000  0.000  0.000   1.0 |
 |  0.67  0.08  0.14  1  2  1  0.000  0.000  1.000  1.000  0.000  0.000   1.0 |
 |  0.67  0.08  0.14  1  3  1  0.000  0.000  1.000  1.000  0.000  0.000   1.0 |
 |  0.92  0.08  0.00  1  1  1  0.000  0.000  1.000  1.000  0.000  0.000   1.0 |
 |  0.92  0.08  0.00  1  2  1  0.000  0.000  1.000  1.000  0.000  0.000   1.0 |
 |  0.92  0.08  0.00  1  3  1  0.000  0.000  1.000  1.000  0.000  0.000   1.0 |
 |  0.92  0.08  0.14  1  1  1  0.000  0.000  1.000  1.000  0.000  0.000   1.0 |
 |  0.92  0.08  0.14  1  2  1  0.000  0.000  1.000  1.000  0.000  0.000   1.0 |
 |  0.92  0.08  0.14  1  3  1  0.000  0.000  1.000  1.000  0.000  0.000   1.0 |
 |  0.92  0.33  0.00  1  1  1  0.000  0.000  1.000  1.000  0.000  0.000   1.0 |
 |  0.92  0.33  0.00  1  2  1  0.000  0.000  1.000  1.000  0.000  0.000   1.0 |
 |  0.92  0.33  0.00  1  3  1  0.000  0.000  1.000  1.000  0.000  0.000   1.0 |
 |  0.92  0.33  0.14  1  1  1  0.000  0.000  1.000  1.000  0.000  0.000   1.0 |
 |  0.92  0.33  0.14  1  2  1  0.000  0.000  1.000  1.000  0.000  0.000   1.0 |
 |  0.92  0.33  0.14  1  3  1  0.000  0.000  1.000  1.000  0.000  0.000   1.0 |
 |  0.92  0.58  0.00  1  1  1  0.000  0.000  1.000  1.000  0.000  0.000   1.0 |
 |  0.92  0.58  0.00  1  2  1  0.000  0.000  1.000  1.000  0.000  0.000   1.0 |
 |  0.92  0.58  0.00  1  3  1  0.000  0.000  1.000  1.000  0.000  0.000   1.0 |
 |  0.92  0.58  0.14  1  1  1  0.000  0.000  1.000  1.000  0.000  0.000   1.0 |
 |  0.92  0.58  0.14  1  2  1  0.000  0.000  1.000  1.000  0.000  0.000   1.0 |
 |  0.92  0.58  0.14  1  3  1  0.000  0.000  1.000  1.000  0.000  0.000   1.0 |
 |  0.92  0.83  0.00  1  1  1  0.000  0.000  1.000  1.000  0.000  0.000   1.0 |
 |  0.92  0.83  0.00  1  2  1  0.000  0.000  1.000  1.000  0.000  0.000   1.0 |
 |  0.92  0.83  0.00  1  3  1  0.000  0.000  1.000  1.000  0.000  0.000   1.0 |
 |  0.92  0.83  0.14  1  1  1  0.000  0.000  1.000  1.000  0.000  0.000   1.0 |
 |  0.92  0.83  0.14  1  2  1  0.000  0.000  1.000  1.000  0.000  0.000   1.0 |
 |  0.92  0.83  0.14  1  3  1  0.000  0.000  1.000  1.000  0.000  0.000   1.0 |
 |  0.67  0.83  0.00  1  1  1  0.000  0.000  1.000  1.000  0.000  0.000   1.0 |
 |  0.67  0.83  0.00  1  2  1  0.000  0.000  1.000  1.000  0.000  0.000   1.0 |
 |  0.67  0.83  0.00  1  3  1  0.000  0.000  1.000  1.000  0.000  0.000   1.0 |
 |  0.67  0.83  0.14  1  1  1  0.000  0.000  1.000  1.000  0.000  0.000   1.0 |
 |  0.67  0.83  0.14  1  2  1  0.000  0.000  1.000  1.000  0.000  0.000   1.0 |
 |  0.67  0.83  0.14  1  3  1  0.000  0.000  1.000  1.000  0.000  0.000   1.0 |
 |  0.42  0.83  0.00  1  1  1  0.000  0.000  1.000  1.000  0.000  0.000   1.0 |
 |  0.42  0.83  0.00  1  2  1  0.000  0.000  1.000  1.000  0.000  0.000   1.0 |
 |  0.42  0.83  0.00  1  3  1  0.000  0.000  1.000  1.000  0.000  0.000   1.0 |
 |  0.42  0.83  0.14  1  1  1  0.000  0.000  1.000  1.000  0.000  0.000   1.0 |
 |  0.42  0.83  0.14  1  2  1  0.000  0.000  1.000  1.000  0.000  0.000   1.0 |
 |  0.42  0.83  0.14  1  3  1  0.000  0.000  1.000  1.000  0.000  0.000   1.0 |
 |  0.17  0.83  0.00  1  1  1  0.000  0.000  1.000  1.000  0.000  0.000   1.0 |
 |  0.17  0.83  0.00  1  2  1  0.000  0.000  1.000  1.000  0.000  0.000   1.0 |
 |  0.17  0.83  0.00  1  3  1  0.000  0.000  1.000  1.000  0.000  0.000   1.0 |
 |  0.17  0.83  0.14  1  1  1  0.000  0.000  1.000  1.000  0.000  0.000   1.0 |
 |  0.17  0.83  0.14  1  2  1  0.000  0.000  1.000  1.000  0.000  0.000   1.0 |
 |  0.17  0.83  0.14  1  3  1  0.000  0.000  1.000  1.000  0.000  0.000   1.0 |
 |  0.67  0.33  0.00  1  1  1  0.000  0.000  1.000  1.000  0.000  0.000   1.0 |
 |  0.67  0.33  0.00  1  2  1  0.000  0.000  1.000  1.000  0.000  0.000   1.0 |
 |  0.67  0.33  0.00  1  3  1  0.000  0.000  1.000  1.000  0.000  0.000   1.0 |
 |  0.67  0.33  0.14  1  1  1  0.000  0.000  1.000  1.000  0.000  0.000   1.0 |
 |  0.67  0.33  0.14  1  2  1  0.000  0.000  1.000  1.000  0.000  0.000   1.0 |
 |  0.67  0.33  0.14  1  3  1  0.000  0.000  1.000  1.000  0.000  0.000   1.0 |
 |  0.67  0.58  0.00  1  1  1  0.000  0.000  1.000  1.000  0.000  0.000   1.0 |
 |  0.67  0.58  0.00  1  2  1  0.000  0.000  1.000  1.000  0.000  0.000   1.0 |
 |  0.67  0.58  0.00  1  3  1  0.000  0.000  1.000  1.000  0.000  0.000   1.0 |
 |  0.67  0.58  0.14  1  1  1  0.000  0.000  1.000  1.000  0.000  0.000   1.0 |
 |  0.67  0.58  0.14  1  2  1  0.000  0.000  1.000  1.000  0.000  0.000   1.0 |
 |  0.67  0.58  0.14  1  3  1  0.000  0.000  1.000  1.000  0.000  0.000   1.0 |
 |  0.42  0.58  0.00  1  1  1  0.000  0.000  1.000  1.000  0.000  0.000   1.0 |
 |  0.42  0.58  0.00  1  2  1  0.000  0.000  1.000  1.000  0.000  0.000   1.0 |
 |  0.42  0.58  0.00  1  3  1  0.000  0.000  1.000  1.000  0.000  0.000   1.0 |
 |  0.42  0.58  0.14  1  1  1  0.000  0.000  1.000  1.000  0.000  0.000   1.0 |
 |  0.42  0.58  0.14  1  2  1  0.000  0.000  1.000  1.000  0.000  0.000   1.0 |
 |  0.42  0.58  0.14  1  3  1  0.000  0.000  1.000  1.000  0.000  0.000   1.0 |
 |  0.42  0.33  0.00  1  1  1  0.000  0.000  1.000  1.000  0.000  0.000   1.0 |
 |  0.42  0.33  0.00  1  2  1  0.000  0.000  1.000  1.000  0.000  0.000   1.0 |
 |  0.42  0.33  0.00  1  3  1  0.000  0.000  1.000  1.000  0.000  0.000   1.0 |
 |  0.42  0.33  0.14  1  1  1  0.000  0.000  1.000  1.000  0.000  0.000   1.0 |
 |  0.42  0.33  0.14  1  2  1  0.000  0.000  1.000  1.000  0.000  0.000   1.0 |
 |  0.42  0.33  0.14  1  3  1  0.000  0.000  1.000  1.000  0.000  0.000   1.0 |
 |  0.17  0.33  0.00  1  1  1  0.000  0.000  1.000  1.000  0.000  0.000   1.0 |
 |  0.17  0.33  0.00  1  2  1  0.000  0.000  1.000  1.000  0.000  0.000   1.0 |
 |  0.17  0.33  0.00  1  3  1  0.000  0.000  1.000  1.000  0.000  0.000   1.0 |
 |  0.17  0.33  0.14  1  1  1  0.000  0.000  1.000  1.000  0.000  0.000   1.0 |
 |  0.17  0.33  0.14  1  2  1  0.000  0.000  1.000  1.000  0.000  0.000   1.0 |
 |  0.17  0.33  0.14  1  3  1  0.000  0.000  1.000  1.000  0.000  0.000   1.0 |
 |  0.17  0.58  0.00  1  1  1  0.000  0.000  1.000  1.000  0.000  0.000   1.0 |
 |  0.17  0.58  0.00  1  2  1  0.000  0.000  1.000  1.000  0.000  0.000   1.0 |
 |  0.17  0.58  0.00  1  3  1  0.000  0.000  1.000  1.000  0.000  0.000   1.0 |
 |  0.17  0.58  0.14  1  1  1  0.000  0.000  1.000  1.000  0.000  0.000   1.0 |
 |  0.17  0.58  0.14  1  2  1  0.000  0.000  1.000  1.000  0.000  0.000   1.0 |
 |  0.17  0.58  0.14  1  3  1  0.000  0.000  1.000  1.000  0.000  0.000   1.0 |
 +----------------------------------------------------------------------------+
  
                                ------------
                                K-POINT GRID
                                ------------
  
             Grid size =  1 x  1 x  1      Total points =    1
  
 *----------------------------------------------------------------------------*
 | k-point      Fractional Coordinate        Cartesian Coordinate (Ang^-1)    |
 +----------------------------------------------------------------------------+
 |     1    0.00000   0.00000   0.00000   |    0.00000   0.00000   0.00000    |
 *----------------------------------------------------------------------------*
  
  
 *---------------------------------- MAIN ------------------------------------*
 |  Number of Wannier Functions               :               176             |
 |  Number of Objective Wannier Functions     :               176             |
 |  Number of input Bloch states              :               300             |
 |  Output verbosity (1=low, 5=high)          :                 3             |
 |  Timing Level (1=low, 5=high)              :                 1             |
 |  Optimisation (0=memory, 3=speed)          :                 3             |
 |  Length Unit                               :               Ang             |
 |  Post-processing setup (write *.nnkp)      :                 F             |
 |  Using Gamma-only branch of algorithms     :                 F             |
 |  CP code post-processing                   :                 F             |
 |  Wavefunction (UNK) file-type              :       unformatted             |
 |  Wavefunction spin channel                 :              down             |
 *----------------------------------------------------------------------------*
 *------------------------------- WANNIERISE ---------------------------------*
 |  Total number of iterations                :               500             |
 |  Number of CG steps before reset           :                 5             |
 |  Trial step length for line search         :             2.000             |
 |  Convergence tolerence                     :         0.100E-09             |
 |  Convergence window                        :                -1             |
 |  Iterations between writing output         :                50             |
 |  Iterations between backing up to disk     :               100             |
 |  Write r^2_nm to file                      :                 F             |
 |  Write xyz WF centres to file              :                 T             |
 |  Write on-site energies <0n|H|0n> to file  :                 F             |
 |  Use guiding centre to control phases      :                 T             |
 |  Use phases for initial projections        :                 F             |
 |  Iterations before starting guiding centres:                 0             |
 |  Iterations between using guiding centres  :                 1             |
 |  Perform selective localization            :                 F             |
 |  Use constrains in selective localization  :                 F             |
 |  Value of the Lagrange multiplier          :         0.100E+01             |
 *----------------------------------------------------------------------------*
 *------------------------------- DISENTANGLE --------------------------------*
 |  Using band disentanglement                :                 T             |
 |  Total number of iterations                :              4000             |
 |  Mixing ratio                              :             0.500             |
 |  Convergence tolerence                     :         1.000E-10             |
 |  Convergence window                        :                 3             |
 *----------------------------------------------------------------------------*
 *-------------------------------- PLOTTING ----------------------------------*
 |  Plotting Wannier functions                :                 F             |
 |   Size of supercell for plotting           :     2x    2x    2             |
 |   Plotting mode (molecule or crystal)      :           crystal             |
 |   Plotting format                          :          xcrysden             |
 |   Plot radius                              :             3.500             |
 |   Plot scale                               :             1.000             |
 *----------------------------------------------------------------------------*
 |  Plotting Fermi surface                    :                 F             |
 |   Number of plotting points (along b_1)    :                50             |
 |   Plotting format                          :          xcrysden             |
 *----------------------------------------------------------------------------*
 |  Plotting interpolated bandstructure       :                 T             |
 |   Number of K-path sections                :                 3             |
 |   Divisions along first K-path section     :               100             |
 |   Output format                            :           gnuplot             |
 |   Output mode                              :               s-k             |
 *----------------------------------------------------------------------------*
 |   K-space path sections:                                                   |
 |    From: Γ      0.000  0.000  0.000     To: K       0.333  0.333  0.000   |
 |    From: K       0.333  0.333  0.000     To: M       0.500  0.000  0.000   |
 |    From: M       0.500  0.000  0.000     To: Γ      0.000  0.000  0.000   |
 *----------------------------------------------------------------------------*
 |  Plotting Hamiltonian in WF basis          :                 T             |
 *----------------------------------------------------------------------------*
 |  Writing data for Van der Waals post-proc  :                 F             |
 *----------------------------------------------------------------------------*
 *------------------------------- TRANSPORT ----------------------------------*
 |  Transport mode                            :              bulk             |
 |   Hamiltonian from external files          :                 F             |
 |   System extended in                       :              none             |
 |   Centre of the unit cell to which WF are translated (fract. coords):      |
 |                                       0.000000,    0.000000,    0.000000   |
 |  Fermi energy (eV)                         :             0.000             |
 *----------------------------------------------------------------------------*
 Time to read parameters        0.016 (sec)

 *---------------------------------- K-MESH ----------------------------------*
 +----------------------------------------------------------------------------+
 |                    Distance to Nearest-Neighbour Shells                    |
 |                    ------------------------------------                    |
 |          Shell             Distance (Ang^-1)          Multiplicity         |
 |          -----             -----------------          ------------         |
 |             1                   0.265883                      2            |
 |             2                   0.526343                      6            |
 |             3                   0.531765                      2            |
 |             4                   0.589686                     12            |
 |             5                   0.748205                     12            |
 |             6                   0.797648                      2            |
 |             7                   0.911652                      6            |
 |             8                   0.949633                     12            |
 |             9                   0.955656                     12            |
 |            10                   1.052685                      6            |
 |            11                   1.055407                     12            |
 |            12                   1.063530                      2            |
 |            13                   1.085744                     12            |
 |            14                   1.179373                     12            |
 |            15                   1.186648                     12            |
 |            16                   1.211343                     12            |
 |            17                   1.320753                     12            |
 |            18                   1.329413                      2            |
 |            19                   1.392572                     12            |
 |            20                   1.400788                     12            |
 |            21                   1.417727                     24            |
 |            22                   1.429816                     12            |
 |            23                   1.490648                     24            |
 |            24                   1.496410                     12            |
 |            25                   1.579028                      6            |
 |            26                   1.601257                     12            |
 |            27                   1.604836                     24            |
 |            28                   1.611970                     12            |
 |            29                   1.666164                     12            |
 |            30                   1.695726                     12            |
 |            31                   1.752242                     24            |
 |            32                   1.769059                     12            |
 |            33                   1.823305                      6            |
 |            34                   1.842589                     12            |
 |            35                   1.897756                     12            |
 |            36                   1.899267                     12            |
 +----------------------------------------------------------------------------+
 | The b-vectors are chosen automatically                                     |
 | Shell:  1 Multiplicity:  2                                                 |
 | b-vector 1 :        0.000000    0.000000    0.265883      (Ang^-1)         |
 | b-vector 2 :        0.000000    0.000000   -0.265883      (Ang^-1)         |
 | Shell:  1 w_b    7.0727819      (Ang^2)                                    |
 | B1 condition is not satisfied: Adding another shell                        |
 | Shell:  2 Multiplicity:  6                                                 |
 | b-vector 1 :        0.455826    0.263171    0.000000      (Ang^-1)         |
 | b-vector 2 :        0.455826   -0.263171    0.000000      (Ang^-1)         |
 | b-vector 3 :        0.000000    0.526343    0.000000      (Ang^-1)         |
 | b-vector 4 :        0.000000   -0.526343    0.000000      (Ang^-1)         |
 | b-vector 5 :       -0.455826    0.263171    0.000000      (Ang^-1)         |
 | b-vector 6 :       -0.455826   -0.263171    0.000000      (Ang^-1)         |
 | Shell:  1 w_b    7.0727819      (Ang^2)                                    |
 | Shell:  2 w_b    1.2032104      (Ang^2)                                    |
 | The following shells are used:   1,  2                                     |
 +----------------------------------------------------------------------------+
 |                        Shell   # Nearest-Neighbours                        |
 |                        -----   --------------------                        |
 |                          1               2                                 |
 |                          2               6                                 |
 +----------------------------------------------------------------------------+
 | Completeness relation is fully satisfied [Eq. (B1), PRB 56, 12847 (1997)]  |
 +----------------------------------------------------------------------------+
 |                  b_k Vectors (Ang^-1) and Weights (Ang^2)                  |
 |                  ----------------------------------------                  |
 |            No.         b_k(x)      b_k(y)      b_k(z)        w_b           |
 |            ---        --------------------------------     --------        |
 |             1         0.000000    0.000000    0.265883     7.072782        |
 |             2         0.000000    0.000000   -0.265883     7.072782        |
 |             3         0.455826    0.263171    0.000000     1.203210        |
 |             4         0.455826   -0.263171    0.000000     1.203210        |
 |             5         0.000000    0.526343    0.000000     1.203210        |
 |             6         0.000000   -0.526343    0.000000     1.203210        |
 |             7        -0.455826    0.263171    0.000000     1.203210        |
 |             8        -0.455826   -0.263171    0.000000     1.203210        |
 +----------------------------------------------------------------------------+
 |                           b_k Directions (Ang^-1)                          |
 |                           -----------------------                          |
 |            No.           x           y           z                         |
 |            ---        --------------------------------                     |
 |             1         0.000000    0.000000    0.265883                     |
 |             2         0.455826    0.263171    0.000000                     |
 |             3         0.455826   -0.263171    0.000000                     |
 |             4         0.000000    0.526343    0.000000                     |
 +----------------------------------------------------------------------------+
  
 Time to get kmesh              0.009 (sec)
 *============================================================================*
 |                              MEMORY ESTIMATE                               |
 |         Maximum RAM allocated during each phase of the calculation         |
 *============================================================================*
 |                        Disentanglement           20.05 Mb                  |
 |                            Wannierise:           12.78 Mb                  |
 |                                                                            |
 |   N.B. by setting optimisation=0 memory usage will be reduced to:          |
 |                        Disentanglement           20.05 Mb                  |
 |                            Wannierise:            9.00 Mb                  |
 |   However, this will result in more i/o and slow down the calculation      |
 |                          plot_wannier:           12.78 Mb                  |
 *----------------------------------------------------------------------------*
  
 Starting a new Wannier90 calculation ...


 Reading overlaps from 1Fe_initialconf.down.mmn    :  Created on  8Nov2023 at 18:50: 4

 Reading projections from 1Fe_initialconf.down.amn :  Created on  8Nov2023 at 18:48:56

 Time to read overlaps          1.870 (sec)

 *------------------------------- DISENTANGLE --------------------------------*
 +----------------------------------------------------------------------------+
 |                              Energy  Windows                               |
 |                              ---------------                               |
 |                   Outer:  -30.00000  to   30.00000  (eV)                   |
 |                   Inner:   -6.00000  to    2.00000  (eV)                   |
 +----------------------------------------------------------------------------+
 |                        K-points with Frozen States                         |
 |                        ---------------------------                         |
 |     1                                                                      |
 +----------------------------------------------------------------------------+
   Number of target bands to extract:  176
 +----------------------------------------------------------------------------+
 |                                  Windows                                   |
 |                                  -------                                   |
 |               K-point      Ndimwin     Ndimfroz    Nfirstwin               |
 |               ----------------------------------------------               |
 |                   1          236          154          65                  |
 +----------------------------------------------------------------------------+

                   Unitarised projection of Wannier functions                  
                   ------------------------------------------                  
   A_mn = <psi_m|g_n> --> S = A.A^+ --> U = S^-1/2.A
   In dis_project... done
   Using an inner window (linner = T)
   In dis_proj_froz...
 K-point   1 ndimwin: 236 we want the 22 leading eigenvector(s) of QPQ
  lambda(  1)= -0.000000000000
  lambda(  2)= -0.000000000000
  lambda(  3)= -0.000000000000
  lambda(  4)= -0.000000000000
  lambda(  5)= -0.000000000000
  lambda(  6)= -0.000000000000
  lambda(  7)= -0.000000000000
  lambda(  8)= -0.000000000000
  lambda(  9)= -0.000000000000
  lambda( 10)= -0.000000000000
  lambda( 11)= -0.000000000000
  lambda( 12)= -0.000000000000
  lambda( 13)= -0.000000000000
  lambda( 14)= -0.000000000000
  lambda( 15)= -0.000000000000
  lambda( 16)= -0.000000000000
  lambda( 17)= -0.000000000000
  lambda( 18)= -0.000000000000
  lambda( 19)= -0.000000000000
  lambda( 20)= -0.000000000000
  lambda( 21)= -0.000000000000
  lambda( 22)= -0.000000000000
  lambda( 23)= -0.000000000000
  lambda( 24)= -0.000000000000
  lambda( 25)= -0.000000000000
  lambda( 26)= -0.000000000000
  lambda( 27)= -0.000000000000
  lambda( 28)= -0.000000000000
  lambda( 29)= -0.000000000000
  lambda( 30)= -0.000000000000
  lambda( 31)= -0.000000000000
  lambda( 32)= -0.000000000000
  lambda( 33)= -0.000000000000
  lambda( 34)= -0.000000000000
  lambda( 35)= -0.000000000000
  lambda( 36)= -0.000000000000
  lambda( 37)= -0.000000000000
  lambda( 38)= -0.000000000000
  lambda( 39)= -0.000000000000
  lambda( 40)= -0.000000000000
  lambda( 41)= -0.000000000000
  lambda( 42)= -0.000000000000
  lambda( 43)= -0.000000000000
  lambda( 44)= -0.000000000000
  lambda( 45)= -0.000000000000
  lambda( 46)= -0.000000000000
  lambda( 47)= -0.000000000000
  lambda( 48)= -0.000000000000
  lambda( 49)= -0.000000000000
  lambda( 50)= -0.000000000000
  lambda( 51)= -0.000000000000
  lambda( 52)= -0.000000000000
  lambda( 53)= -0.000000000000
  lambda( 54)= -0.000000000000
  lambda( 55)= -0.000000000000
  lambda( 56)= -0.000000000000
  lambda( 57)= -0.000000000000
  lambda( 58)= -0.000000000000
  lambda( 59)= -0.000000000000
  lambda( 60)= -0.000000000000
  lambda( 61)= -0.000000000000
  lambda( 62)= -0.000000000000
  lambda( 63)= -0.000000000000
  lambda( 64)= -0.000000000000
  lambda( 65)= -0.000000000000
  lambda( 66)= -0.000000000000
  lambda( 67)= -0.000000000000
  lambda( 68)= -0.000000000000
  lambda( 69)= -0.000000000000
  lambda( 70)= -0.000000000000
  lambda( 71)= -0.000000000000
  lambda( 72)= -0.000000000000
  lambda( 73)= -0.000000000000
  lambda( 74)= -0.000000000000
  lambda( 75)= -0.000000000000
  lambda( 76)= -0.000000000000
  lambda( 77)= -0.000000000000
  lambda( 78)= -0.000000000000
  lambda( 79)=  0.000000000000
  lambda( 80)=  0.000000000000
  lambda( 81)=  0.000000000000
  lambda( 82)=  0.000000000000
  lambda( 83)=  0.000000000000
  lambda( 84)=  0.000000000000
  lambda( 85)=  0.000000000000
  lambda( 86)=  0.000000000000
  lambda( 87)=  0.000000000000
  lambda( 88)=  0.000000000000
  lambda( 89)=  0.000000000000
  lambda( 90)=  0.000000000000
  lambda( 91)=  0.000000000000
  lambda( 92)=  0.000000000000
  lambda( 93)=  0.000000000000
  lambda( 94)=  0.000000000000
  lambda( 95)=  0.000000000000
  lambda( 96)=  0.000000000000
  lambda( 97)=  0.000000000000
  lambda( 98)=  0.000000000000
  lambda( 99)=  0.000000000000
  lambda(100)=  0.000000000000
  lambda(101)=  0.000000000000
  lambda(102)=  0.000000000000
  lambda(103)=  0.000000000000
  lambda(104)=  0.000000000000
  lambda(105)=  0.000000000000
  lambda(106)=  0.000000000000
  lambda(107)=  0.000000000000
  lambda(108)=  0.000000000000
  lambda(109)=  0.000000000000
  lambda(110)=  0.000000000000
  lambda(111)=  0.000000000000
  lambda(112)=  0.000000000000
  lambda(113)=  0.000000000000
  lambda(114)=  0.000000000000
  lambda(115)=  0.000000000000
  lambda(116)=  0.000000000000
  lambda(117)=  0.000000000000
  lambda(118)=  0.000000000000
  lambda(119)=  0.000000000000
  lambda(120)=  0.000000000000
  lambda(121)=  0.000000000000
  lambda(122)=  0.000000000000
  lambda(123)=  0.000000000000
  lambda(124)=  0.000000000000
  lambda(125)=  0.000000000000
  lambda(126)=  0.000000000000
  lambda(127)=  0.000000000000
  lambda(128)=  0.000000000000
  lambda(129)=  0.000000000000
  lambda(130)=  0.000000000000
  lambda(131)=  0.000000000000
  lambda(132)=  0.000000000000
  lambda(133)=  0.000000000000
  lambda(134)=  0.000000000000
  lambda(135)=  0.000000000000
  lambda(136)=  0.000000000000
  lambda(137)=  0.000000000000
  lambda(138)=  0.000000000000
  lambda(139)=  0.000000000000
  lambda(140)=  0.000000000000
  lambda(141)=  0.000000000000
  lambda(142)=  0.000000000000
  lambda(143)=  0.000000000000
  lambda(144)=  0.000000000000
  lambda(145)=  0.000000000000
  lambda(146)=  0.000000000000
  lambda(147)=  0.000000000000
  lambda(148)=  0.000000000000
  lambda(149)=  0.000000000000
  lambda(150)=  0.000000000000
  lambda(151)=  0.000000000000
  lambda(152)=  0.000000000000
  lambda(153)=  0.000000000000
  lambda(154)=  0.000000000000
  lambda(155)=  0.000000000000
  lambda(156)=  0.000000000002
  lambda(157)=  0.000000000063
  lambda(158)=  0.000000000316
  lambda(159)=  0.000000004866
  lambda(160)=  0.000781338629
  lambda(161)=  0.000781428246
  lambda(162)=  0.000781479818
  lambda(163)=  0.000781655422
  lambda(164)=  0.000781675578
  lambda(165)=  0.000781767751
  lambda(166)=  0.015956801237
  lambda(167)=  0.015956839866
  lambda(168)=  0.015957240295
  lambda(169)=  0.015957355204
  lambda(170)=  0.015957559937
  lambda(171)=  0.015957614873
  lambda(172)=  0.019823883984
  lambda(173)=  0.031144551060
  lambda(174)=  0.031180414140
  lambda(175)=  0.031180558144
  lambda(176)=  0.039609008459
  lambda(177)=  0.039609289683
  lambda(178)=  0.039610382682
  lambda(179)=  0.039610600236
  lambda(180)=  0.039613511389
  lambda(181)=  0.039613704892
  lambda(182)=  0.043268290729
  lambda(183)=  0.059348967675
  lambda(184)=  0.059363295876
  lambda(185)=  0.059363298956
  lambda(186)=  0.079091526810
  lambda(187)=  0.079105026901
  lambda(188)=  0.079105090989
  lambda(189)=  0.089607036775
  lambda(190)=  0.089607052421
  lambda(191)=  0.089616811228
  lambda(192)=  0.089616876133
  lambda(193)=  0.089633792165
  lambda(194)=  0.089633824359
  lambda(195)=  0.091605958350
  lambda(196)=  0.091608029956
  lambda(197)=  0.108924011210
  lambda(198)=  0.108924328339
  lambda(199)=  0.108924763254
  lambda(200)=  0.108925137664
  lambda(201)=  0.121198313446
  lambda(202)=  0.121198694585
  lambda(203)=  0.121203218648
  lambda(204)=  0.121204010018
  lambda(205)=  0.121206053479
  lambda(206)=  0.121206680043
  lambda(207)=  0.140770964427
  lambda(208)=  0.140780264993
  lambda(209)=  0.150586888823
  lambda(210)=  0.150586926171
  lambda(211)=  0.150587332398
  lambda(212)=  0.150587430686
  lambda(213)=  0.150593565175
  lambda(214)=  0.150593647424
  lambda(215)=  1.000000000000
  lambda(216)=  1.000000000000
  lambda(217)=  1.000000000000
  lambda(218)=  1.000000000000
  lambda(219)=  1.000000000000
  lambda(220)=  1.000000000000
  lambda(221)=  1.000000000000
  lambda(222)=  1.000000000000
  lambda(223)=  1.000000000000
  lambda(224)=  1.000000000000
  lambda(225)=  1.000000000000
  lambda(226)=  1.000000000000
  lambda(227)=  1.000000000000
  lambda(228)=  1.000000000000
  lambda(229)=  1.000000000000
  lambda(230)=  1.000000000000
  lambda(231)=  1.000000000000
  lambda(232)=  1.000000000000
  lambda(233)=  1.000000000000
  lambda(234)=  1.000000000000
  lambda(235)=  1.000000000000
  lambda(236)=  1.000000000000
 done

                   Extraction of optimally-connected subspace                  
                   ------------------------------------------                  
  Original eigenvalues inside outer window:

  K-point   1   -15.16109 -14.52077 -14.52069 -14.52069 -14.52053 -14.52053 -14.52046 -14.17608 -13.88567 -13.88559 -13.88559 -13.88544 -13.88544 -13.88537 -13.75463 -13.75463 -13.75455 -13.75454 -13.75438 -13.75438
-13.73577 -13.73576 -13.73576 -13.53949 -13.53948 -13.53948 -13.53221 -13.53221 -13.53213 -13.53213 -13.53196 -13.53196  -6.56988  -6.56988  -6.56988  -6.43643  -5.89639  -5.89639  -5.89632  -5.89632
 -5.89630  -5.89630  -5.74171  -5.74164  -5.74164  -5.74150  -5.74150  -5.74143  -5.65168  -5.65168  -5.65168  -5.58341  -5.58340  -5.58332  -5.58332  -5.58314  -5.58314  -4.93366  -4.93366  -4.93366
 -4.89532  -4.89527  -4.89527  -4.89516  -4.89516  -4.89511  -4.76665  -4.76665  -4.76655  -4.76654  -4.76643  -4.76643  -4.39543  -4.39539  -4.39539  -4.39533  -4.39533  -4.39529  -4.16814  -4.16814
 -4.16814  -4.16814  -4.16804  -4.16804  -3.94528  -3.94528  -3.94522  -3.94521  -3.94513  -3.94513  -3.91360  -3.91360  -3.91360  -3.34843  -3.34843  -3.27900  -3.27898  -3.27898  -3.27891  -3.27891
 -3.27889  -2.98491  -2.98491  -2.98491  -2.95543  -2.82980  -2.82980  -2.82970  -2.82969  -2.82964  -2.82964  -2.74810  -2.74806  -2.74806  -2.74796  -2.74796  -2.74792  -2.59989  -2.59984  -2.59984
 -2.59974  -2.59974  -2.59969  -2.36086  -2.36086  -2.21771  -2.21771  -2.21771  -1.73985  -1.73985  -1.73985  -1.63875  -1.63866  -1.63866  -1.63849  -1.63849  -1.63840  -1.42595  -1.42594  -1.42592
 -1.42592  -1.42568  -1.42568  -0.96328   0.92569   0.92576   0.92576   0.92588   0.92588   0.92594   0.94711   0.94711   0.94720   0.94720   0.94734   0.94735   1.08503   1.08504   1.08504   1.10591
  1.10595   1.10595   1.10605   1.10605   1.10610   1.46755   1.46759   1.46759   1.46769   1.46769   1.46773   1.47562   1.47562   1.47563   1.47987   1.47987   1.51890   1.51890   1.51894   1.51895
  1.51913   1.51913   1.66158   1.66158   1.79587   1.79587   1.79602   1.79602   1.79605   1.79605   2.33092   2.33093   2.33093   2.42351   2.42353   2.42353   2.42360   2.42360   2.42363   2.92666
  2.92666   2.92666   3.01930   3.01931   3.01935   3.01935   3.01947   3.01947   3.09124   3.55452   3.69787   4.14040   4.14040   4.14040   4.20525   4.35458   4.35460   4.35460   4.35464   4.35464
  4.35466   4.58685   4.58687   4.58687   4.58690   4.58690   4.58692   4.68584   4.90979   4.90980   4.90980   4.90982   4.90982   4.90983   5.44385   5.44388
 +---------------------------------------------------------------------+<-- DIS
 |  Iter     Omega_I(i-1)      Omega_I(i)      Delta (frac.)    Time   |<-- DIS
 +---------------------------------------------------------------------+<-- DIS
       1     302.62906774     301.82884652       2.651E-03      0.00    <-- DIS
       2     301.96746780     301.53476169       1.435E-03      0.06    <-- DIS
       3     301.67806861     301.31611945       1.201E-03      0.12    <-- DIS
       4     301.44809343     301.14966162       9.910E-04      0.18    <-- DIS
       5     301.26604141     301.02001056       8.173E-04      0.24    <-- DIS
       6     301.12117792     300.91688929       6.789E-04      0.30    <-- DIS
       7     301.00475491     300.83334216       5.698E-04      0.36    <-- DIS
       8     300.91006028     300.76458681       4.837E-04      0.42    <-- DIS
       9     300.83208768     300.70727323       4.151E-04      0.48    <-- DIS
      10     300.76714341     300.65900458       3.597E-04      0.54    <-- DIS
      11     300.71250159     300.61802597       3.143E-04      0.60    <-- DIS
      12     300.66613468     300.58302144       2.765E-04      0.66    <-- DIS
      13     300.62651466     300.55298039       2.447E-04      0.72    <-- DIS
      14     300.59247081     300.52710913       2.175E-04      0.78    <-- DIS
      15     300.56308979     300.50477150       1.941E-04      0.84    <-- DIS
      16     300.53764598     300.48544854       1.737E-04      0.90    <-- DIS
      17     300.51555294     300.46871061       1.559E-04      0.96    <-- DIS
      18     300.49632932     300.45419772       1.402E-04      1.02    <-- DIS
      19     300.47957484     300.44160541       1.264E-04      1.08    <-- DIS
      20     300.46495298     300.43067427       1.141E-04      1.14    <-- DIS
      21     300.45217834     300.42118205       1.032E-04      1.20    <-- DIS
      22     300.44100721     300.41293755       9.344E-05      1.26    <-- DIS
      23     300.43123035     300.40577580       8.473E-05      1.32    <-- DIS
      24     300.42266741     300.39955409       7.694E-05      1.38    <-- DIS
      25     300.41516244     300.39414883       6.995E-05      1.44    <-- DIS
      26     300.40858029     300.38945282       6.368E-05      1.50    <-- DIS
      27     300.40280364     300.38537303       5.803E-05      1.57    <-- DIS
      28     300.39773052     300.38182867       5.294E-05      1.63    <-- DIS
      29     300.39327217     300.37874955       4.835E-05      1.69    <-- DIS
      30     300.38935132     300.37607470       4.420E-05      1.75    <-- DIS
      31     300.38590065     300.37375111       4.045E-05      1.81    <-- DIS
      32     300.38286144     300.37173274       3.705E-05      1.87    <-- DIS
      33     300.38018252     300.36997956       3.397E-05      1.93    <-- DIS
      34     300.37781921     300.36845677       3.117E-05      1.99    <-- DIS
      35     300.37573254     300.36713414       2.863E-05      2.05    <-- DIS
      36     300.37388848     300.36598541       2.631E-05      2.11    <-- DIS
      37     300.37225730     300.36498773       2.420E-05      2.17    <-- DIS
      38     300.37081305     300.36412128       2.228E-05      2.23    <-- DIS
      39     300.36953302     300.36336880       2.052E-05      2.29    <-- DIS
      40     300.36839738     300.36271532       1.892E-05      2.35    <-- DIS
      41     300.36738877     300.36214784       1.745E-05      2.41    <-- DIS
      42     300.36649201     300.36165504       1.610E-05      2.47    <-- DIS
      43     300.36569380     300.36122710       1.487E-05      2.53    <-- DIS
      44     300.36498252     300.36085550       1.374E-05      2.59    <-- DIS
      45     300.36434794     300.36053282       1.270E-05      2.65    <-- DIS
      46     300.36378114     300.36025262       1.175E-05      2.71    <-- DIS
      47     300.36327427     300.36000933       1.087E-05      2.77    <-- DIS
      48     300.36282043     300.35979807       1.006E-05      2.83    <-- DIS
      49     300.36241358     300.35961464       9.319E-06      2.89    <-- DIS
      50     300.36204841     300.35945536       8.633E-06      2.95    <-- DIS
      51     300.36172023     300.35931707       8.001E-06      3.01    <-- DIS
      52     300.36142494     300.35919699       7.418E-06      3.07    <-- DIS
      53     300.36115891     300.35909273       6.879E-06      3.13    <-- DIS
      54     300.36091893     300.35900221       6.381E-06      3.19    <-- DIS
      55     300.36070220     300.35892362       5.922E-06      3.25    <-- DIS
      56     300.36050622     300.35885538       5.496E-06      3.31    <-- DIS
      57     300.36032879     300.35879613       5.103E-06      3.37    <-- DIS
      58     300.36016795     300.35874469       4.739E-06      3.43    <-- DIS
      59     300.36002200     300.35870002       4.401E-06      3.49    <-- DIS
      60     300.35988939     300.35866125       4.089E-06      3.55    <-- DIS
      61     300.35976878     300.35862758       3.799E-06      3.61    <-- DIS
      62     300.35965894     300.35859835       3.531E-06      3.68    <-- DIS
      63     300.35955882     300.35857297       3.282E-06      3.74    <-- DIS
      64     300.35946746     300.35855094       3.051E-06      3.80    <-- DIS
      65     300.35938400     300.35853181       2.837E-06      3.86    <-- DIS
      66     300.35930769     300.35851520       2.638E-06      3.92    <-- DIS
      67     300.35923784     300.35850078       2.454E-06      3.98    <-- DIS
      68     300.35917386     300.35848826       2.283E-06      4.04    <-- DIS
      69     300.35911519     300.35847740       2.123E-06      4.10    <-- DIS
      70     300.35906135     300.35846796       1.976E-06      4.16    <-- DIS
      71     300.35901190     300.35845977       1.838E-06      4.22    <-- DIS
      72     300.35896645     300.35845265       1.711E-06      4.28    <-- DIS
      73     300.35892463     300.35844648       1.592E-06      4.34    <-- DIS
      74     300.35888614     300.35844112       1.482E-06      4.40    <-- DIS
      75     300.35885068     300.35843647       1.379E-06      4.46    <-- DIS
      76     300.35881800     300.35843242       1.284E-06      4.52    <-- DIS
      77     300.35878785     300.35842892       1.195E-06      4.58    <-- DIS
      78     300.35876002     300.35842587       1.113E-06      4.64    <-- DIS
      79     300.35873433     300.35842323       1.036E-06      4.70    <-- DIS
      80     300.35871059     300.35842093       9.644E-07      4.76    <-- DIS
      81     300.35868864     300.35841894       8.979E-07      4.82    <-- DIS
      82     300.35866835     300.35841721       8.361E-07      4.88    <-- DIS
      83     300.35864956     300.35841571       7.786E-07      4.94    <-- DIS
      84     300.35863218     300.35841440       7.251E-07      5.00    <-- DIS
      85     300.35861608     300.35841327       6.752E-07      5.06    <-- DIS
      86     300.35860116     300.35841229       6.288E-07      5.12    <-- DIS
      87     300.35858734     300.35841143       5.857E-07      5.18    <-- DIS
      88     300.35857453     300.35841069       5.455E-07      5.24    <-- DIS
      89     300.35856264     300.35841005       5.080E-07      5.30    <-- DIS
      90     300.35855162     300.35840949       4.732E-07      5.36    <-- DIS
      91     300.35854139     300.35840901       4.407E-07      5.42    <-- DIS
      92     300.35853189     300.35840859       4.105E-07      5.48    <-- DIS
      93     300.35852308     300.35840822       3.824E-07      5.54    <-- DIS
      94     300.35851489     300.35840790       3.562E-07      5.60    <-- DIS
      95     300.35850729     300.35840763       3.318E-07      5.66    <-- DIS
      96     300.35850023     300.35840739       3.091E-07      5.72    <-- DIS
      97     300.35849366     300.35840718       2.879E-07      5.78    <-- DIS
      98     300.35848756     300.35840700       2.682E-07      5.84    <-- DIS
      99     300.35848189     300.35840684       2.499E-07      5.90    <-- DIS
     100     300.35847662     300.35840671       2.328E-07      5.96    <-- DIS
     101     300.35847172     300.35840659       2.169E-07      6.02    <-- DIS
     102     300.35846717     300.35840649       2.020E-07      6.08    <-- DIS
     103     300.35846293     300.35840640       1.882E-07      6.14    <-- DIS
     104     300.35845899     300.35840632       1.753E-07      6.20    <-- DIS
     105     300.35845532     300.35840626       1.634E-07      6.26    <-- DIS
     106     300.35845191     300.35840620       1.522E-07      6.33    <-- DIS
     107     300.35844873     300.35840615       1.418E-07      6.39    <-- DIS
     108     300.35844578     300.35840610       1.321E-07      6.45    <-- DIS
     109     300.35844303     300.35840606       1.231E-07      6.51    <-- DIS
     110     300.35844047     300.35840603       1.147E-07      6.57    <-- DIS
     111     300.35843809     300.35840600       1.068E-07      6.63    <-- DIS
     112     300.35843587     300.35840598       9.952E-08      6.69    <-- DIS
     113     300.35843381     300.35840596       9.272E-08      6.75    <-- DIS
     114     300.35843189     300.35840594       8.639E-08      6.81    <-- DIS
     115     300.35843010     300.35840592       8.049E-08      6.87    <-- DIS
     116     300.35842843     300.35840591       7.499E-08      6.93    <-- DIS
     117     300.35842688     300.35840589       6.987E-08      6.99    <-- DIS
     118     300.35842544     300.35840588       6.510E-08      7.05    <-- DIS
     119     300.35842409     300.35840587       6.065E-08      7.11    <-- DIS
     120     300.35842284     300.35840587       5.651E-08      7.17    <-- DIS
     121     300.35842167     300.35840586       5.265E-08      7.23    <-- DIS
     122     300.35842059     300.35840585       4.906E-08      7.29    <-- DIS
     123     300.35841958     300.35840585       4.571E-08      7.35    <-- DIS
     124     300.35841863     300.35840584       4.259E-08      7.41    <-- DIS
     125     300.35841776     300.35840584       3.968E-08      7.47    <-- DIS
     126     300.35841694     300.35840584       3.697E-08      7.53    <-- DIS
     127     300.35841618     300.35840583       3.445E-08      7.59    <-- DIS
     128     300.35841547     300.35840583       3.209E-08      7.65    <-- DIS
     129     300.35841481     300.35840583       2.990E-08      7.71    <-- DIS
     130     300.35841420     300.35840583       2.786E-08      7.77    <-- DIS
     131     300.35841362     300.35840583       2.596E-08      7.83    <-- DIS
     132     300.35841309     300.35840582       2.419E-08      7.89    <-- DIS
     133     300.35841259     300.35840582       2.254E-08      7.95    <-- DIS
     134     300.35841213     300.35840582       2.100E-08      8.01    <-- DIS
     135     300.35841170     300.35840582       1.956E-08      8.07    <-- DIS
     136     300.35841129     300.35840582       1.823E-08      8.13    <-- DIS
     137     300.35841092     300.35840582       1.698E-08      8.19    <-- DIS
     138     300.35841057     300.35840582       1.582E-08      8.25    <-- DIS
     139     300.35841025     300.35840582       1.474E-08      8.31    <-- DIS
     140     300.35840994     300.35840582       1.374E-08      8.37    <-- DIS
     141     300.35840966     300.35840582       1.280E-08      8.43    <-- DIS
     142     300.35840940     300.35840582       1.193E-08      8.49    <-- DIS
     143     300.35840915     300.35840582       1.111E-08      8.55    <-- DIS
     144     300.35840893     300.35840582       1.035E-08      8.61    <-- DIS
     145     300.35840871     300.35840582       9.647E-09      8.67    <-- DIS
     146     300.35840852     300.35840582       8.989E-09      8.73    <-- DIS
     147     300.35840833     300.35840582       8.375E-09      8.79    <-- DIS
     148     300.35840816     300.35840581       7.804E-09      8.85    <-- DIS
     149     300.35840800     300.35840581       7.271E-09      8.91    <-- DIS
     150     300.35840785     300.35840581       6.775E-09      8.97    <-- DIS
     151     300.35840771     300.35840581       6.312E-09      9.03    <-- DIS
     152     300.35840758     300.35840581       5.882E-09      9.09    <-- DIS
     153     300.35840746     300.35840581       5.480E-09      9.15    <-- DIS
     154     300.35840735     300.35840581       5.106E-09      9.21    <-- DIS
     155     300.35840724     300.35840581       4.758E-09      9.27    <-- DIS
     156     300.35840715     300.35840581       4.433E-09      9.33    <-- DIS
     157     300.35840705     300.35840581       4.130E-09      9.39    <-- DIS
     158     300.35840697     300.35840581       3.848E-09      9.45    <-- DIS
     159     300.35840689     300.35840581       3.586E-09      9.51    <-- DIS
     160     300.35840682     300.35840581       3.341E-09      9.57    <-- DIS
     161     300.35840675     300.35840581       3.113E-09      9.63    <-- DIS
     162     300.35840669     300.35840581       2.901E-09      9.69    <-- DIS
     163     300.35840663     300.35840581       2.703E-09      9.75    <-- DIS
     164     300.35840657     300.35840581       2.518E-09      9.81    <-- DIS
     165     300.35840652     300.35840581       2.346E-09      9.87    <-- DIS
     166     300.35840647     300.35840581       2.186E-09      9.93    <-- DIS
     167     300.35840643     300.35840581       2.037E-09      9.99    <-- DIS
     168     300.35840638     300.35840581       1.898E-09     10.05    <-- DIS
     169     300.35840635     300.35840581       1.768E-09     10.11    <-- DIS
     170     300.35840631     300.35840581       1.648E-09     10.17    <-- DIS
     171     300.35840628     300.35840581       1.535E-09     10.23    <-- DIS
     172     300.35840624     300.35840581       1.430E-09     10.29    <-- DIS
     173     300.35840621     300.35840581       1.333E-09     10.35    <-- DIS
     174     300.35840619     300.35840581       1.242E-09     10.41    <-- DIS
     175     300.35840616     300.35840581       1.157E-09     10.47    <-- DIS
     176     300.35840614     300.35840581       1.078E-09     10.53    <-- DIS
     177     300.35840612     300.35840581       1.005E-09     10.59    <-- DIS
     178     300.35840610     300.35840581       9.360E-10     10.65    <-- DIS
     179     300.35840608     300.35840581       8.721E-10     10.71    <-- DIS
     180     300.35840606     300.35840581       8.126E-10     10.77    <-- DIS
     181     300.35840604     300.35840581       7.571E-10     10.83    <-- DIS
     182     300.35840603     300.35840581       7.054E-10     10.89    <-- DIS
     183     300.35840601     300.35840581       6.573E-10     10.95    <-- DIS
     184     300.35840600     300.35840581       6.124E-10     11.01    <-- DIS
     185     300.35840599     300.35840581       5.706E-10     11.07    <-- DIS
     186     300.35840597     300.35840581       5.317E-10     11.13    <-- DIS
     187     300.35840596     300.35840581       4.954E-10     11.19    <-- DIS
     188     300.35840595     300.35840581       4.616E-10     11.25    <-- DIS
     189     300.35840594     300.35840581       4.301E-10     11.31    <-- DIS
     190     300.35840593     300.35840581       4.007E-10     11.37    <-- DIS
     191     300.35840593     300.35840581       3.734E-10     11.43    <-- DIS
     192     300.35840592     300.35840581       3.479E-10     11.49    <-- DIS
     193     300.35840591     300.35840581       3.242E-10     11.55    <-- DIS
     194     300.35840590     300.35840581       3.020E-10     11.61    <-- DIS
     195     300.35840590     300.35840581       2.814E-10     11.67    <-- DIS
     196     300.35840589     300.35840581       2.622E-10     11.73    <-- DIS
     197     300.35840589     300.35840581       2.443E-10     11.79    <-- DIS
     198     300.35840588     300.35840581       2.276E-10     11.85    <-- DIS
     199     300.35840588     300.35840581       2.121E-10     11.92    <-- DIS
     200     300.35840587     300.35840581       1.976E-10     11.98    <-- DIS
     201     300.35840587     300.35840581       1.841E-10     12.04    <-- DIS
     202     300.35840587     300.35840581       1.716E-10     12.10    <-- DIS
     203     300.35840586     300.35840581       1.599E-10     12.16    <-- DIS
     204     300.35840586     300.35840581       1.489E-10     12.22    <-- DIS
     205     300.35840586     300.35840581       1.388E-10     12.28    <-- DIS
     206     300.35840585     300.35840581       1.293E-10     12.34    <-- DIS
     207     300.35840585     300.35840581       1.205E-10     12.40    <-- DIS
     208     300.35840585     300.35840581       1.123E-10     12.46    <-- DIS
     209     300.35840585     300.35840581       1.046E-10     12.52    <-- DIS
     210     300.35840584     300.35840581       9.745E-11     12.58    <-- DIS
     211     300.35840584     300.35840581       9.080E-11     12.64    <-- DIS
     212     300.35840584     300.35840581       8.460E-11     12.70    <-- DIS

             <<<      Delta < 1.000E-10  over  3 iterations     >>>
             <<< Disentanglement convergence criteria satisfied >>>

        Final Omega_I   300.35840581 (Ang^2)


  Eigenvalues inside optimal subspace:

  K-point   1   -6.53993  -6.53993  -6.53993  -6.43114  -5.89639  -5.89639  -5.89632  -5.89632  -5.89630  -5.89630  -5.74171  -5.74164  -5.74164  -5.74150  -5.74150  -5.74143  -5.65168  -5.65168  -5.65168  -5.58341
 -5.58340  -5.58332  -5.58332  -5.58314  -5.58314  -4.93366  -4.93366  -4.93366  -4.89532  -4.89527  -4.89527  -4.89516  -4.89516  -4.89511  -4.76665  -4.76665  -4.76655  -4.76654  -4.76643  -4.76643
 -4.39543  -4.39539  -4.39539  -4.39533  -4.39533  -4.39529  -4.16814  -4.16814  -4.16814  -4.16814  -4.16804  -4.16804  -3.94528  -3.94528  -3.94522  -3.94521  -3.94513  -3.94513  -3.91360  -3.91360
 -3.91360  -3.34843  -3.34843  -3.27900  -3.27898  -3.27898  -3.27891  -3.27891  -3.27889  -2.98491  -2.98491  -2.98491  -2.95543  -2.82980  -2.82980  -2.82970  -2.82969  -2.82964  -2.82964  -2.74810
 -2.74806  -2.74806  -2.74796  -2.74796  -2.74792  -2.59989  -2.59984  -2.59984  -2.59974  -2.59974  -2.59969  -2.36086  -2.36086  -2.21771  -2.21771  -2.21771  -1.73985  -1.73985  -1.73985  -1.63875
 -1.63866  -1.63866  -1.63849  -1.63849  -1.63840  -1.42595  -1.42594  -1.42592  -1.42592  -1.42568  -1.42568  -0.96328   0.92569   0.92576   0.92576   0.92588   0.92588   0.92594   0.94711   0.94711
  0.94720   0.94720   0.94734   0.94735   1.08503   1.08504   1.08504   1.10591   1.10595   1.10595   1.10605   1.10605   1.10610   1.46755   1.46759   1.46759   1.46769   1.46769   1.46773   1.47562
  1.47562   1.47563   1.47987   1.47987   1.51890   1.51890   1.51894   1.51895   1.51913   1.51913   1.66158   1.66158   1.74514   1.74514   1.74514   1.79587   1.79587   1.79602   1.79602   1.79605
  1.79605   2.42351   2.42353   2.42353   2.42360   2.42360   2.42363   2.60450   2.60450   2.60467   2.60467   2.60470   2.60470   2.92666   2.92666   2.92666
 +----------------------------------------------------------------------------+

 Time to disentangle bands     13.071 (sec)

 Writing checkpoint file 1Fe_initialconf.down.chk... done

 
 *------------------------------- WANNIERISE ---------------------------------*
 +--------------------------------------------------------------------+<-- CONV
 | Iter  Delta Spread     RMS Gradient      Spread (Ang^2)      Time  |<-- CONV
 +--------------------------------------------------------------------+<-- CONV
 
 ------------------------------------------------------------------------------
 Initial State
  WF centre and spread    1  ( -0.000000,  0.000000,  1.677153 )     1.66958460
  WF centre and spread    2  (  0.000000, -0.002341,  1.677151 )     1.81159073
  WF centre and spread    3  ( -0.000001,  0.002405,  1.677151 )     1.81157220
  WF centre and spread    4  ( -0.000001,  0.100947,  1.677152 )     1.72932485
  WF centre and spread    5  ( -0.000002, -0.100695,  1.677152 )     1.72932172
  WF centre and spread    6  (  3.446054, -0.000003,  1.677152 )     1.66949948
  WF centre and spread    7  (  3.446056, -0.002337,  1.677150 )     1.81155889
  WF centre and spread    8  (  3.446048,  0.002397,  1.677150 )     1.81151593
  WF centre and spread    9  (  3.446056,  0.100937,  1.677152 )     1.72924089
  WF centre and spread   10  (  3.446059, -0.100692,  1.677152 )     1.72923791
  WF centre and spread   11  (  6.892085, -0.000006,  1.677152 )     1.66941986
  WF centre and spread   12  (  6.892086, -0.002333,  1.677150 )     1.81153175
  WF centre and spread   13  (  6.892085,  0.002389,  1.677150 )     1.81146593
  WF centre and spread   14  (  6.892084,  0.100927,  1.677152 )     1.72916282
  WF centre and spread   15  (  6.892083, -0.100690,  1.677152 )     1.72915891
  WF centre and spread   16  ( 10.338116, -0.000003,  1.677152 )     1.66949973
  WF centre and spread   17  ( 10.338116, -0.002337,  1.677150 )     1.81155892
  WF centre and spread   18  ( 10.338122,  0.002397,  1.677150 )     1.81151588
  WF centre and spread   19  ( 10.338112,  0.100937,  1.677152 )     1.72924118
  WF centre and spread   20  ( 10.338108, -0.100692,  1.677152 )     1.72923788
  WF centre and spread   21  (  8.615103,  2.984363,  1.677152 )     1.66944656
  WF centre and spread   22  (  8.615103,  2.982030,  1.677149 )     1.81152684
  WF centre and spread   23  (  8.615103,  2.986759,  1.677150 )     1.81149249
  WF centre and spread   24  (  8.615101,  3.085298,  1.677152 )     1.72918400
  WF centre and spread   25  (  8.615098,  2.883681,  1.677152 )     1.72918004
  WF centre and spread   26  (  6.892085,  5.968718,  1.677152 )     1.66944677
  WF centre and spread   27  (  6.892086,  5.966386,  1.677149 )     1.81150316
  WF centre and spread   28  (  6.892085,  5.971112,  1.677149 )     1.81151616
  WF centre and spread   29  (  6.892084,  6.069648,  1.677152 )     1.72918295
  WF centre and spread   30  (  6.892083,  5.868034,  1.677152 )     1.72918116
  WF centre and spread   31  (  5.169055,  8.953073,  1.677152 )     1.66949964
  WF centre and spread   32  (  5.169055,  8.950740,  1.677150 )     1.81153459
  WF centre and spread   33  (  5.169060,  8.955473,  1.677150 )     1.81154018
  WF centre and spread   34  (  5.169052,  9.054008,  1.677152 )     1.72924046
  WF centre and spread   35  (  5.169050,  8.852383,  1.677152 )     1.72923955
  WF centre and spread   36  (  1.723013,  8.953077,  1.677152 )     1.66938590
  WF centre and spread   37  (  1.723013,  8.950748,  1.677150 )     1.81149498
  WF centre and spread   38  (  1.723017,  8.955472,  1.677150 )     1.81146882
  WF centre and spread   39  (  1.723010,  9.054008,  1.677152 )     1.72913580
  WF centre and spread   40  (  1.723007,  8.852394,  1.677152 )     1.72913155
  WF centre and spread   41  ( -1.723013,  8.953077,  1.677152 )     1.66938577
  WF centre and spread   42  ( -1.723012,  8.950748,  1.677150 )     1.81149499
  WF centre and spread   43  ( -1.723019,  8.955472,  1.677150 )     1.81146863
  WF centre and spread   44  ( -1.723012,  9.054008,  1.677152 )     1.72913589
  WF centre and spread   45  ( -1.723012,  8.852394,  1.677152 )     1.72913184
  WF centre and spread   46  ( -5.169056,  8.953073,  1.677152 )     1.66949969
  WF centre and spread   47  ( -5.169054,  8.950740,  1.677150 )     1.81153460
  WF centre and spread   48  ( -5.169062,  8.955473,  1.677150 )     1.81154014
  WF centre and spread   49  ( -5.169054,  9.054008,  1.677152 )     1.72924024
  WF centre and spread   50  ( -5.169055,  8.852383,  1.677152 )     1.72923984
  WF centre and spread   51  (  5.169067,  2.984363,  1.677152 )     1.66944653
  WF centre and spread   52  (  5.169069,  2.982031,  1.677149 )     1.81152701
  WF centre and spread   53  (  5.169066,  2.986759,  1.677149 )     1.81149245
  WF centre and spread   54  (  5.169068,  3.085298,  1.677152 )     1.72918357
  WF centre and spread   55  (  5.169068,  2.883681,  1.677152 )     1.72917998
  WF centre and spread   56  (  3.446037,  5.968724,  1.677152 )     1.66941965
  WF centre and spread   57  (  3.446038,  5.966390,  1.677150 )     1.81149647
  WF centre and spread   58  (  3.446041,  5.971120,  1.677150 )     1.81150147
  WF centre and spread   59  (  3.446035,  6.069658,  1.677152 )     1.72916255
  WF centre and spread   60  (  3.446035,  5.868042,  1.677152 )     1.72916021
  WF centre and spread   61  ( -0.000000,  5.968731,  1.677152 )     1.66938573
  WF centre and spread   62  (  0.000000,  5.966393,  1.677150 )     1.81148369
  WF centre and spread   63  ( -0.000001,  5.971127,  1.677150 )     1.81148038
  WF centre and spread   64  ( -0.000001,  6.069668,  1.677152 )     1.72913518
  WF centre and spread   65  ( -0.000002,  5.868052,  1.677152 )     1.72913243
  WF centre and spread   66  (  1.723024,  2.984372,  1.677152 )     1.66949974
  WF centre and spread   67  (  1.723025,  2.982030,  1.677150 )     1.81154690
  WF centre and spread   68  (  1.723023,  2.986774,  1.677150 )     1.81152835
  WF centre and spread   69  (  1.723024,  3.085318,  1.677152 )     1.72924113
  WF centre and spread   70  (  1.723025,  2.883687,  1.677152 )     1.72923682
  WF centre and spread   71  ( -1.723025,  2.984372,  1.677152 )     1.66949958
  WF centre and spread   72  ( -1.723024,  2.982030,  1.677150 )     1.81154684
  WF centre and spread   73  ( -1.723025,  2.986774,  1.677150 )     1.81152824
  WF centre and spread   74  ( -1.723027,  3.085318,  1.677152 )     1.72924187
  WF centre and spread   75  ( -1.723030,  2.883687,  1.677152 )     1.72923690
  WF centre and spread   76  ( -3.446038,  5.968724,  1.677152 )     1.66941970
  WF centre and spread   77  ( -3.446037,  5.966390,  1.677150 )     1.81149647
  WF centre and spread   78  ( -3.446043,  5.971120,  1.677150 )     1.81150139
  WF centre and spread   79  ( -3.446037,  6.069658,  1.677152 )     1.72916314
  WF centre and spread   80  ( -3.446039,  5.868042,  1.677152 )     1.72916012
  WF centre and spread   81  (  1.723033,  0.994788, -0.097275 )     2.12001182
  WF centre and spread   82  (  1.723037,  0.984701,  0.040568 )     1.83334765
  WF centre and spread   83  (  1.723030,  1.005401,  0.040568 )     1.83335703
  WF centre and spread   84  (  1.723032,  0.994788,  3.451576 )     2.11998319
  WF centre and spread   85  (  1.723037,  0.984701,  3.313734 )     1.83331529
  WF centre and spread   86  (  1.723030,  1.005400,  3.313735 )     1.83332449
  WF centre and spread   87  (  5.169075,  0.994784, -0.097252 )     2.11999225
  WF centre and spread   88  (  5.169080,  0.984698,  0.040572 )     1.83332787
  WF centre and spread   89  (  5.169073,  1.005391,  0.040570 )     1.83333809
  WF centre and spread   90  (  5.169075,  0.994784,  3.451552 )     2.11996704
  WF centre and spread   91  (  5.169080,  0.984698,  3.313729 )     1.83329842
  WF centre and spread   92  (  5.169072,  1.005391,  3.313732 )     1.83330819
  WF centre and spread   93  (  8.615105,  0.994784, -0.097252 )     2.11999221
  WF centre and spread   94  (  8.615100,  0.984698,  0.040572 )     1.83332785
  WF centre and spread   95  (  8.615105,  1.005391,  0.040570 )     1.83333784
  WF centre and spread   96  (  8.615106,  0.994783,  3.451552 )     2.11996744
  WF centre and spread   97  (  8.615101,  0.984698,  3.313729 )     1.83329842
  WF centre and spread   98  (  8.615105,  1.005391,  3.313732 )     1.83330794
  WF centre and spread   99  ( 12.061148,  0.994788, -0.097275 )     2.12001170
  WF centre and spread  100  ( 12.061143,  0.984701,  0.040568 )     1.83334763
  WF centre and spread  101  ( 12.061148,  1.005401,  0.040568 )     1.83335702
  WF centre and spread  102  ( 12.061148,  0.994788,  3.451576 )     2.11998299
  WF centre and spread  103  ( 12.061143,  0.984701,  3.313734 )     1.83331528
  WF centre and spread  104  ( 12.061148,  1.005400,  3.313735 )     1.83332447
  WF centre and spread  105  ( 10.338130,  3.979150, -0.097252 )     2.11999200
  WF centre and spread  106  ( 10.338129,  3.969064,  0.040570 )     1.83332851
  WF centre and spread  107  ( 10.338130,  3.989765,  0.040572 )     1.83333727
[...]
  WF centre and spread   77  ( -3.446043,  5.968021,  1.677151 )     1.83469599
  WF centre and spread   78  ( -3.446042,  5.969526,  1.677151 )     1.83408913
  WF centre and spread   79  (  3.446239, -5.838304,  1.677151 )     1.73725581
  WF centre and spread   80  ( -3.446768,  5.846054,  1.677151 )     1.75009864
  WF centre and spread   81  (  1.722913,  0.991990, -0.103401 )     2.06315999
  WF centre and spread   82  (  1.723077,  0.980923,  0.037752 )     1.81089989
  WF centre and spread   83  (  1.723005,  1.011293,  0.037845 )     1.81096671
  WF centre and spread   84  (  1.722913,  0.991990,  3.457704 )     2.06315798
  WF centre and spread   85  (  1.723077,  0.980923,  3.316551 )     1.81089907
  WF centre and spread   86  (  1.723004,  1.011292,  3.316458 )     1.81096575
  WF centre and spread   87  (  5.168953,  0.992030, -0.103364 )     2.06299237
  WF centre and spread   88  (  5.169115,  0.980931,  0.037766 )     1.81082789
  WF centre and spread   89  (  5.169040,  1.011318,  0.037851 )     1.81100433
  WF centre and spread   90  (  5.168952,  0.992030,  3.457666 )     2.06299235
  WF centre and spread   91  (  5.169115,  0.980930,  3.316536 )     1.81082910
  WF centre and spread   92  (  5.169040,  1.011318,  3.316451 )     1.81100504
  WF centre and spread   93  ( -5.168953,  0.992031, -0.103364 )     2.06299174
  WF centre and spread   94  ( -5.169114,  0.980931,  0.037766 )     1.81082762
  WF centre and spread   95  ( -5.169013,  1.011319,  0.037851 )     1.81100329
  WF centre and spread   96  ( -5.168952,  0.992030,  3.457666 )     2.06299218
  WF centre and spread   97  ( -5.169114,  0.980930,  3.316536 )     1.81082882
  WF centre and spread   98  ( -5.169013,  1.011319,  3.316451 )     1.81100409
  WF centre and spread   99  ( -1.722914,  0.991990, -0.103401 )     2.06315978
  WF centre and spread  100  ( -1.723076,  0.980924,  0.037752 )     1.81089984
  WF centre and spread  101  ( -1.722977,  1.011293,  0.037845 )     1.81096573
  WF centre and spread  102  ( -1.722913,  0.991990,  3.457704 )     2.06315764
  WF centre and spread  103  ( -1.723076,  0.980923,  3.316551 )     1.81089898
  WF centre and spread  104  ( -1.722977,  1.011293,  3.316458 )     1.81096480
  WF centre and spread  105  ( -3.446019,  3.976371, -0.103367 )     2.06305793
  WF centre and spread  106  ( -3.446057,  3.965292,  0.037760 )     1.81085382
  WF centre and spread  107  ( -3.446018,  3.995673,  0.037854 )     1.81097906
  WF centre and spread  108  ( -3.446018,  3.976371,  3.457670 )     2.06305811
  WF centre and spread  109  ( -3.446057,  3.965292,  3.316542 )     1.81085472
  WF centre and spread  110  ( -3.446018,  3.995673,  3.316448 )     1.81098028
  WF centre and spread  111  (  1.722938, -4.976720, -0.103368 )     2.06305487
  WF centre and spread  112  (  1.723059, -4.987799,  0.037761 )     1.81085806
  WF centre and spread  113  (  1.723010, -4.957429,  0.037855 )     1.81097119
  WF centre and spread  114  (  1.722938, -4.976719,  3.457670 )     2.06305523
  WF centre and spread  115  (  1.723059, -4.987799,  3.316541 )     1.81085908
  WF centre and spread  116  (  1.723010, -4.957428,  3.316447 )     1.81097228
  WF centre and spread  117  ( -0.000000, -1.992384, -0.103396 )     2.06315492
  WF centre and spread  118  (  0.000001, -2.003446,  0.037754 )     1.81089756
  WF centre and spread  119  (  0.000014, -1.973091,  0.037848 )     1.81097346
  WF centre and spread  120  ( -0.000000, -1.992384,  3.457699 )     2.06315224
  WF centre and spread  121  (  0.000001, -2.003446,  3.316549 )     1.81089672
  WF centre and spread  122  (  0.000014, -1.973091,  3.316455 )     1.81097258
  WF centre and spread  123  ( -3.445849, -1.992353, -0.103384 )     2.06306624
  WF centre and spread  124  ( -3.446133, -2.003439,  0.037759 )     1.81086743
  WF centre and spread  125  ( -3.445972, -1.973063,  0.037847 )     1.81095229
  WF centre and spread  126  ( -3.445849, -1.992353,  3.457687 )     2.06306537
  WF centre and spread  127  ( -3.446132, -2.003439,  3.316544 )     1.81086792
  WF centre and spread  128  ( -3.445972, -1.973063,  3.316456 )     1.81095266
  WF centre and spread  129  ( -0.000000,  9.945100, -0.103351 )     2.06297377
  WF centre and spread  130  (  0.000001,  9.934009,  0.037767 )     1.81081715
  WF centre and spread  131  (  0.000014,  9.964393,  0.037855 )     1.81099728
  WF centre and spread  132  ( -0.000001,  9.945101,  3.457654 )     2.06297242
  WF centre and spread  133  (  0.000001,  9.934009,  3.316536 )     1.81081767
  WF centre and spread  134  (  0.000014,  9.964393,  3.316448 )     1.81099754
  WF centre and spread  135  (  3.445849, -1.992353, -0.103384 )     2.06306660
  WF centre and spread  136  (  3.446134, -2.003440,  0.037759 )     1.81086710
  WF centre and spread  137  (  3.445999, -1.973064,  0.037847 )     1.81095434
  WF centre and spread  138  (  3.445849, -1.992353,  3.457687 )     2.06306549
  WF centre and spread  139  (  3.446134, -2.003439,  3.316544 )     1.81086761
  WF centre and spread  140  (  3.445999, -1.973064,  3.316455 )     1.81095466
  WF centre and spread  141  (  0.000001, -7.961053, -0.103353 )     2.06297883
  WF centre and spread  142  (  0.000000, -7.972150,  0.037768 )     1.81082145
  WF centre and spread  143  (  0.000014, -7.941764,  0.037856 )     1.81100071
  WF centre and spread  144  (  0.000001, -7.961053,  3.457655 )     2.06298161
  WF centre and spread  145  (  0.000000, -7.972150,  3.316534 )     1.81082419
  WF centre and spread  146  (  0.000014, -7.941764,  3.316445 )     1.81100343
  WF centre and spread  147  ( -1.722937, -4.976720, -0.103368 )     2.06305490
  WF centre and spread  148  ( -1.723058, -4.987799,  0.037761 )     1.81085816
  WF centre and spread  149  ( -1.722981, -4.957428,  0.037855 )     1.81096994
  WF centre and spread  150  ( -1.722937, -4.976719,  3.457670 )     2.06305494
  WF centre and spread  151  ( -1.723058, -4.987799,  3.316541 )     1.81085908
  WF centre and spread  152  ( -1.722981, -4.957428,  3.316447 )     1.81097102
  WF centre and spread  153  (  1.723113,  6.960724, -0.103360 )     2.06304568
  WF centre and spread  154  (  1.722982,  6.949649,  0.037760 )     1.81084845
  WF centre and spread  155  (  1.723063,  6.980029,  0.037856 )     1.81095425
  WF centre and spread  156  (  1.723113,  6.960725,  3.457663 )     2.06304452
  WF centre and spread  157  (  1.722982,  6.949649,  3.316542 )     1.81084877
  WF centre and spread  158  (  1.723062,  6.980029,  3.316447 )     1.81095466
  WF centre and spread  159  (  3.446021,  3.976371, -0.103367 )     2.06305831
  WF centre and spread  160  (  3.446058,  3.965292,  0.037760 )     1.81085376
  WF centre and spread  161  (  3.446046,  3.995673,  0.037854 )     1.81097919
  WF centre and spread  162  (  3.446020,  3.976371,  3.457670 )     2.06305830
  WF centre and spread  163  (  3.446058,  3.965291,  3.316542 )     1.81085467
  WF centre and spread  164  (  3.446046,  3.995673,  3.316448 )     1.81098037
  WF centre and spread  165  (  0.000000,  3.976350, -0.103382 )     2.06314281
  WF centre and spread  166  (  0.000000,  3.965291,  0.037752 )     1.81088591
  WF centre and spread  167  (  0.000014,  3.995666,  0.037851 )     1.81095098
  WF centre and spread  168  (  0.000000,  3.976350,  3.457685 )     2.06314167
  WF centre and spread  169  (  0.000000,  3.965291,  3.316551 )     1.81088611
  WF centre and spread  170  (  0.000014,  3.995666,  3.316451 )     1.81095160
  WF centre and spread  171  ( -1.723112,  6.960724, -0.103360 )     2.06304600
  WF centre and spread  172  ( -1.722981,  6.949649,  0.037760 )     1.81084850
  WF centre and spread  173  ( -1.723035,  6.980029,  0.037856 )     1.81095558
  WF centre and spread  174  ( -1.723112,  6.960724,  3.457663 )     2.06304462
  WF centre and spread  175  ( -1.722981,  6.949649,  3.316542 )     1.81084886
  WF centre and spread  176  ( -1.723035,  6.980029,  3.316447 )     1.81095588
  Sum of centres and spreads (  0.000061,214.930827,295.178604 )   323.45202308
 
         Spreads (Ang^2)       Omega I      =   300.358405814
        ================       Omega D      =     0.009111411
                               Omega OD     =    23.084506020
    Final Spread (Ang^2)       Omega Total  =   323.452023245
 ------------------------------------------------------------------------------
 Final centres (translated to home cell for writing xyz file)
  WF centre    1  ( -0.000007, -0.004021,  1.677152 )
  WF centre    2  ( -0.000005, -0.000712,  1.677151 )
  WF centre    3  (  0.000001,  0.000813,  1.677151 )
  WF centre    4  ( -0.000002,  0.130441,  1.677152 )
  WF centre    5  ( -0.000009, -0.122733,  1.677152 )
  WF centre    6  (  3.431837, -0.005262,  1.677151 )
  WF centre    7  (  3.446052, -0.000707,  1.677151 )
  WF centre    8  (  3.446050,  0.000804,  1.677151 )
  WF centre    9  (  3.439916,  0.130030,  1.677151 )
  WF centre   10  (  3.467677, -0.121138,  1.677152 )
  WF centre   11  ( -0.000058, 11.933427,  1.677151 )
  WF centre   12  ( -0.000005, 11.936741,  1.677150 )
  WF centre   13  (  0.000001, 11.938237,  1.677151 )
  WF centre   14  ( -0.000024,-11.807050,  1.677151 )
  WF centre   15  (  0.000067, 11.814812,  1.677151 )
  WF centre   16  ( -3.431849, -0.005259,  1.677151 )
  WF centre   17  ( -3.446062, -0.000707,  1.677151 )
  WF centre   18  ( -3.446048,  0.000804,  1.677151 )
  WF centre   19  ( -3.439919,  0.130030,  1.677151 )
  WF centre   20  ( -3.467700, -0.121142,  1.677151 )
  WF centre   21  ( -5.161938,  2.980038,  1.677151 )
  WF centre   22  ( -5.169074,  2.983661,  1.677150 )
  WF centre   23  ( -5.169066,  2.985164,  1.677150 )
  WF centre   24  (  1.726122, -8.822755,  1.677151 )
  WF centre   25  ( -5.179982,  2.862106,  1.677151 )
  WF centre   26  (  0.000052, -5.972738,  1.677151 )
  WF centre   27  ( -0.000005, -5.969425,  1.677150 )
  WF centre   28  (  0.000001, -5.967923,  1.677150 )
  WF centre   29  (  0.000024, -5.838300,  1.677151 )
  WF centre   30  ( -0.000100, -6.091392,  1.677151 )
  WF centre   31  ( -1.716334, -2.988659,  1.677151 )
  WF centre   32  ( -1.723038, -2.985072,  1.677151 )
  WF centre   33  ( -1.723024, -2.983562,  1.677150 )
  WF centre   34  ( -1.720104, -2.854034,  1.677152 )
  WF centre   35  ( -1.733290, -3.106731,  1.677151 )
  WF centre   36  ( -5.161831, -2.988700,  1.677151 )
  WF centre   37  (  1.723005,  8.952380,  1.677151 )
  WF centre   38  (  1.723019,  8.953878,  1.677151 )
  WF centre   39  ( -5.165906, -2.854077,  1.677151 )
  WF centre   40  (  1.711924,  8.830825,  1.677151 )
  WF centre   41  (  5.161858, -2.988698,  1.677151 )
  WF centre   42  ( -1.723016,  8.952380,  1.677151 )
  WF centre   43  ( -1.723017,  8.953879,  1.677151 )
  WF centre   44  (  5.165920, -2.854076,  1.677151 )
  WF centre   45  ( -1.712006,  8.830823,  1.677152 )
  WF centre   46  (  1.716391, -2.988655,  1.677151 )
  WF centre   47  (  1.723027, -2.985072,  1.677151 )
  WF centre   48  (  1.723026, -2.983562,  1.677151 )
  WF centre   49  (  1.720131, -2.854032,  1.677151 )
  WF centre   50  (  1.733162, -3.106736,  1.677151 )
  WF centre   51  (  5.161970,  2.980041,  1.677151 )
  WF centre   52  (  5.169064,  2.983661,  1.677150 )
  WF centre   53  (  5.169068,  2.985164,  1.677150 )
  WF centre   54  ( -1.726105, -8.822754,  1.677151 )
  WF centre   55  (  5.179893,  2.862103,  1.677151 )
  WF centre   56  (  3.445697,  5.964707,  1.677151 )
  WF centre   57  (  3.446033,  5.968021,  1.677151 )
  WF centre   58  (  3.446043,  5.969526,  1.677150 )
  WF centre   59  ( -3.446183, -5.838305,  1.677151 )
  WF centre   60  (  3.446538,  5.846053,  1.677151 )
  WF centre   61  (  0.000031,  5.964711,  1.677151 )
  WF centre   62  ( -0.000005,  5.968025,  1.677151 )
  WF centre   63  (  0.000001,  5.969533,  1.677151 )
  WF centre   64  (  0.000015,  6.099130,  1.677151 )
  WF centre   65  ( -0.000067,  5.846056,  1.677152 )
  WF centre   66  (  1.715490,  2.980002,  1.677151 )
  WF centre   67  (  1.723020,  2.983660,  1.677150 )
  WF centre   68  (  1.723025,  2.985181,  1.677151 )
  WF centre   69  (  1.719749,  3.114696,  1.677151 )
  WF centre   70  (  1.734514,  2.862103,  1.677152 )
  WF centre   71  ( -1.715508,  2.980004,  1.677151 )
  WF centre   72  ( -1.723031,  2.983660,  1.677150 )
  WF centre   73  ( -1.723024,  2.985181,  1.677151 )
  WF centre   74  ( -1.719754,  3.114696,  1.677151 )
  WF centre   75  ( -1.734528,  2.862100,  1.677152 )
  WF centre   76  ( -3.445573,  5.964706,  1.677151 )
  WF centre   77  ( -3.446043,  5.968021,  1.677151 )
  WF centre   78  ( -3.446042,  5.969526,  1.677151 )
  WF centre   79  (  3.446239, -5.838304,  1.677151 )
  WF centre   80  ( -3.446768,  5.846054,  1.677151 )
  WF centre   81  (  1.722913,  0.991990, -0.103401 )
  WF centre   82  (  1.723077,  0.980923,  0.037752 )
  WF centre   83  (  1.723005,  1.011293,  0.037845 )
  WF centre   84  (  1.722913,  0.991990,  3.457704 )
  WF centre   85  (  1.723077,  0.980923,  3.316551 )
  WF centre   86  (  1.723004,  1.011292,  3.316458 )
  WF centre   87  (  5.168953,  0.992030, -0.103364 )
  WF centre   88  (  5.169115,  0.980931,  0.037766 )
  WF centre   89  (  5.169040,  1.011318,  0.037851 )
  WF centre   90  (  5.168952,  0.992030,  3.457666 )
  WF centre   91  (  5.169115,  0.980930,  3.316536 )
  WF centre   92  (  5.169040,  1.011318,  3.316451 )
  WF centre   93  ( -5.168953,  0.992031, -0.103364 )
  WF centre   94  ( -5.169114,  0.980931,  0.037766 )
  WF centre   95  ( -5.169013,  1.011319,  0.037851 )
  WF centre   96  ( -5.168952,  0.992030,  3.457666 )
  WF centre   97  ( -5.169114,  0.980930,  3.316536 )
  WF centre   98  ( -5.169013,  1.011319,  3.316451 )
  WF centre   99  ( -1.722914,  0.991990, -0.103401 )
  WF centre  100  ( -1.723076,  0.980924,  0.037752 )
  WF centre  101  ( -1.722977,  1.011293,  0.037845 )
  WF centre  102  ( -1.722913,  0.991990,  3.457704 )
  WF centre  103  ( -1.723076,  0.980923,  3.316551 )
  WF centre  104  ( -1.722977,  1.011293,  3.316458 )
  WF centre  105  ( -3.446019,  3.976371, -0.103367 )
  WF centre  106  ( -3.446057,  3.965292,  0.037760 )
  WF centre  107  ( -3.446018,  3.995673,  0.037854 )
  WF centre  108  ( -3.446018,  3.976371,  3.457670 )
  WF centre  109  ( -3.446057,  3.965292,  3.316542 )
  WF centre  110  ( -3.446018,  3.995673,  3.316448 )
  WF centre  111  (  1.722938, -4.976720, -0.103368 )
  WF centre  112  (  1.723059, -4.987799,  0.037761 )
  WF centre  113  (  1.723010, -4.957429,  0.037855 )
  WF centre  114  (  1.722938, -4.976719,  3.457670 )
  WF centre  115  (  1.723059, -4.987799,  3.316541 )
  WF centre  116  (  1.723010, -4.957428,  3.316447 )
  WF centre  117  ( -0.000000, -1.992384, -0.103396 )
  WF centre  118  (  0.000001, -2.003446,  0.037754 )
  WF centre  119  (  0.000014, -1.973091,  0.037848 )
  WF centre  120  ( -0.000000, -1.992384,  3.457699 )
  WF centre  121  (  0.000001, -2.003446,  3.316549 )
  WF centre  122  (  0.000014, -1.973091,  3.316455 )
  WF centre  123  ( -3.445849, -1.992353, -0.103384 )
  WF centre  124  ( -3.446133, -2.003439,  0.037759 )
  WF centre  125  ( -3.445972, -1.973063,  0.037847 )
  WF centre  126  ( -3.445849, -1.992353,  3.457687 )
  WF centre  127  ( -3.446132, -2.003439,  3.316544 )
  WF centre  128  ( -3.445972, -1.973063,  3.316456 )
  WF centre  129  ( -0.000000,  9.945100, -0.103351 )
  WF centre  130  (  0.000001,  9.934009,  0.037767 )
  WF centre  131  (  0.000014,  9.964393,  0.037855 )
  WF centre  132  ( -0.000001,  9.945101,  3.457654 )
  WF centre  133  (  0.000001,  9.934009,  3.316536 )
  WF centre  134  (  0.000014,  9.964393,  3.316448 )
  WF centre  135  (  3.445849, -1.992353, -0.103384 )
  WF centre  136  (  3.446134, -2.003440,  0.037759 )
  WF centre  137  (  3.445999, -1.973064,  0.037847 )
  WF centre  138  (  3.445849, -1.992353,  3.457687 )
  WF centre  139  (  3.446134, -2.003439,  3.316544 )
  WF centre  140  (  3.445999, -1.973064,  3.316455 )
  WF centre  141  (  0.000001, -7.961053, -0.103353 )
  WF centre  142  (  0.000000, -7.972150,  0.037768 )
  WF centre  143  (  0.000014, -7.941764,  0.037856 )
  WF centre  144  (  0.000001, -7.961053,  3.457655 )
  WF centre  145  (  0.000000, -7.972150,  3.316534 )
  WF centre  146  (  0.000014, -7.941764,  3.316445 )
  WF centre  147  ( -1.722937, -4.976720, -0.103368 )
  WF centre  148  ( -1.723058, -4.987799,  0.037761 )
  WF centre  149  ( -1.722981, -4.957428,  0.037855 )
  WF centre  150  ( -1.722937, -4.976719,  3.457670 )
  WF centre  151  ( -1.723058, -4.987799,  3.316541 )
  WF centre  152  ( -1.722981, -4.957428,  3.316447 )
  WF centre  153  (  1.723113,  6.960724, -0.103360 )
  WF centre  154  (  1.722982,  6.949649,  0.037760 )
  WF centre  155  (  1.723063,  6.980029,  0.037856 )
  WF centre  156  (  1.723113,  6.960725,  3.457663 )
  WF centre  157  (  1.722982,  6.949649,  3.316542 )
  WF centre  158  (  1.723062,  6.980029,  3.316447 )
  WF centre  159  (  3.446021,  3.976371, -0.103367 )
  WF centre  160  (  3.446058,  3.965292,  0.037760 )
  WF centre  161  (  3.446046,  3.995673,  0.037854 )
  WF centre  162  (  3.446020,  3.976371,  3.457670 )
  WF centre  163  (  3.446058,  3.965291,  3.316542 )
  WF centre  164  (  3.446046,  3.995673,  3.316448 )
  WF centre  165  (  0.000000,  3.976350, -0.103382 )
  WF centre  166  (  0.000000,  3.965291,  0.037752 )
  WF centre  167  (  0.000014,  3.995666,  0.037851 )
  WF centre  168  (  0.000000,  3.976350,  3.457685 )
  WF centre  169  (  0.000000,  3.965291,  3.316551 )
  WF centre  170  (  0.000014,  3.995666,  3.316451 )
  WF centre  171  ( -1.723112,  6.960724, -0.103360 )
  WF centre  172  ( -1.722981,  6.949649,  0.037760 )
  WF centre  173  ( -1.723035,  6.980029,  0.037856 )
  WF centre  174  ( -1.723112,  6.960724,  3.457663 )
  WF centre  175  ( -1.722981,  6.949649,  3.316542 )
  WF centre  176  ( -1.723035,  6.980029,  3.316447 )
 ------------------------------------------------------------------------------
 

 Wannier centres written to file 1Fe_initialconf.down_centres.xyz
  
  Omega Invariant:   1-s^2 =   300.358405814 (Ang^2)
                   -2log s =   339.290704961 (Ang^2)
                    acos^2 =   324.865592995 (Ang^2)
 Time for wannierise           30.955 (sec)

 Writing checkpoint file 1Fe_initialconf.down.chk... done

 *---------------------------------------------------------------------------*
 |                               PLOTTING                                    |
 *---------------------------------------------------------------------------*
 
    1 lattice points in Wigner-Seitz supercell:

      vector   0   0   0   degeneracy:  1
  tot =        1.000
  mp_grid product =            1
 
 Calculating interpolated band-structure
 
 Time to calculate interpolated band structure       3.166 (sec)
 
 Time for plotting              3.351 (sec)
 Total Execution Time          49.277 (sec)

 *===========================================================================*
 |                             TIMING INFORMATION                            |
 *===========================================================================*
 |    Tag                                                Ncalls      Time (s)|
 |---------------------------------------------------------------------------|
 |kmesh: get                                        :         1         0.009|
 |overlap: allocate                                 :         1         0.001|
 |overlap: read                                     :         1         1.818|
 |dis: main                                         :         1        13.071|
 |wann: main                                        :         1        30.955|
 |plot: main                                        :         1         3.351|
 *---------------------------------------------------------------------------*
 
 All done: wannier90 exiting
