 
             +---------------------------------------------------+
             |                                                   |
             |                   WANNIER90                       |
             |                                                   |
             +---------------------------------------------------+
             |                                                   |
             |        Welcome to the Maximally-Localized         |
             |        Generalized Wannier Functions code         |
             |            http://www.wannier.org                 |
             |                                                   |
             |                                                   |
             |  Wannier90 Developer Group:                       |
             |    Giovanni Pizzi    (EPFL)                       |
             |    Valerio Vitale    (Cambridge)                  |
             |    David Vanderbilt  (Rutgers University)         |
             |    Nicola Marzari    (EPFL)                       |
             |    Ivo Souza         (Universidad del Pais Vasco) |
             |    Arash A. Mostofi  (Imperial College London)    |
             |    Jonathan R. Yates (University of Oxford)       |
             |                                                   |
             |  For the full list of Wannier90 3.x authors,      |
             |  please check the code documentation and the      |
             |  README on the GitHub page of the code            |
             |                                                   |
             |                                                   |
             |  Please cite                                      |
             |                                                   |
             |  [ref] "Wannier90 as a community code:            |
             |        new features and applications",            |
             |        G. Pizzi et al., J. Phys. Cond. Matt. 32,  |
             |        165902 (2020).                             |
             |        http://doi.org/10.1088/1361-648X/ab51ff    |
             |                                                   |
             |  in any publications arising from the use of      |
             |  this code. For the method please cite            |
             |                                                   |
             |  [ref] "Maximally Localized Generalised Wannier   |
             |         Functions for Composite Energy Bands"     |
             |         N. Marzari and D. Vanderbilt              |
             |         Phys. Rev. B 56 12847 (1997)              |
             |                                                   |
             |  [ref] "Maximally Localized Wannier Functions     |
             |         for Entangled Energy Bands"               |
             |         I. Souza, N. Marzari and D. Vanderbilt    |
             |         Phys. Rev. B 65 035109 (2001)             |
             |                                                   |
             |                                                   |
             | Copyright (c) 1996-2020                           |
             |        The Wannier90 Developer Group and          |
             |        individual contributors                    |
             |                                                   |
             |      Release: 3.1.0        5th March    2020      |
             |                                                   |
             | This program is free software; you can            |
             | redistribute it and/or modify it under the terms  |
             | of the GNU General Public License as published by |
             | the Free Software Foundation; either version 2 of |
             | the License, or (at your option) any later version|
             |                                                   |
             | This program is distributed in the hope that it   |
             | will be useful, but WITHOUT ANY WARRANTY; without |
             | even the implied warranty of MERCHANTABILITY or   |
             | FITNESS FOR A PARTICULAR PURPOSE. See the GNU     |
             | General Public License for more details.          |
             |                                                   |
             | You should have received a copy of the GNU General|
             | Public License along with this program; if not,   |
             | write to the Free Software Foundation, Inc.,      |
             | 675 Mass Ave, Cambridge, MA 02139, USA.           |
             |                                                   |
             +---------------------------------------------------+
             |    Execution started on 11Jul2023 at 19:42:25     |
             +---------------------------------------------------+
 
 ******************************************************************************
 * -> Using CODATA 2006 constant values                                       *
 *    (http://physics.nist.gov/cuu/Constants/index.html)                      *
 * -> Using Bohr value from CODATA                                            *
 ******************************************************************************
 

 Running in parallel on  80 CPUs

 
                                    ------
                                    SYSTEM
                                    ------
 
                              Lattice Vectors (Ang)
                    a_1    13.784171   0.000000   0.000000
                    a_2    -6.892085  11.937442   0.000000
                    a_3     0.000000   0.000000  23.631430
 
                   Unit Cell Volume:    3888.49848  (Ang^3)
 
                        Reciprocal-Space Vectors (Ang^-1)
                    b_1     0.455826   0.263171   0.000000
                    b_2     0.000000   0.526343   0.000000
                    b_3     0.000000   0.000000   0.265883
  
 *----------------------------------------------------------------------------*
 |   Site       Fractional Coordinate          Cartesian Coordinate (Ang)     |
 +----------------------------------------------------------------------------+
 | Cr   1   0.66667   0.58333   0.23874   |    5.16906   6.96351   5.64177    |
 | Nb   1  -0.00388   0.00042   0.07111   |   -0.05638   0.00505   1.68047    |
 | Nb   2   0.25120  -0.00120   0.07108   |    3.47081  -0.01430   1.67974    |
 | Nb   3   0.49760  -0.00120   0.07108   |    6.86732  -0.01430   1.67974    |
 | Nb   4   0.75430   0.00042   0.07111   |   10.39451   0.00505   1.68047    |
 | Nb   5   0.75430   0.25388   0.07111   |    8.64767   3.03067   1.68047    |
 | Nb   6   0.75582   0.49418   0.07027   |    7.01234   5.89929   1.66051    |
 | Nb   7   0.75582   0.76163   0.07027   |    5.16906   9.09194   1.66051    |
 | Nb   8   0.49926   0.75074   0.07073   |    1.70770   8.96193   1.67138    |
 | Nb   9   0.25120   0.75240   0.07108   |   -1.72302   8.98168   1.67974    |
 | Nb  10   0.00148   0.75074   0.07073   |   -5.15375   8.96193   1.67138    |
 | Nb  11   0.49926   0.24852   0.07073   |    5.16906   2.96667   1.67138    |
 | Nb  12   0.48837   0.49418   0.07027   |    3.32579   5.89929   1.66051    |
 | Nb  13   0.24958   0.49570   0.07111   |    0.02382   5.91737   1.68047    |
 | Nb  14   0.24958   0.25388   0.07111   |    1.69046   3.03067   1.68047    |
 | Nb  15   0.00000   0.25000   0.07114   |   -1.72302   2.98436   1.68116    |
 | Nb  16  -0.00388   0.49570   0.07111   |   -3.46986   5.91737   1.68047    |
 | Se   1   0.16669   0.08331   0.00109   |    1.72354   0.99449   0.02565    |
 | Se   2   0.16661   0.08339   0.14113   |    1.72189   0.99544   3.33507    |
 | Se   3   0.41638   0.08275  -0.00112   |    5.16906   0.98783  -0.02635    |
 | Se   4   0.41681   0.08361   0.14308   |    5.16906   0.99811   3.38115    |
 | Se   5   0.66662   0.08331   0.00109   |    8.61459   0.99449   0.02565    |
 | Se   6   0.66678   0.08339   0.14113   |    8.61624   0.99544   3.33507    |
 | Se   7   0.91731   0.08463  -0.00145   |   12.06115   1.01021  -0.03425    |
 | Se   8   0.91729   0.08459   0.14373   |   12.06115   1.00975   3.39647    |
 | Se   9   0.91731   0.33269  -0.00145   |   10.35148   3.97144  -0.03425    |
 | Se  10   0.91729   0.33271   0.14373   |   10.35108   3.97167   3.39647    |
 | Se  11   0.91901   0.58442  -0.00106   |    8.63988   6.97654  -0.02496    |
 | Se  12   0.91812   0.58420   0.14299   |    8.62919   6.97384   3.37905    |
 | Se  13   0.91901   0.83458  -0.00106   |    6.91576   9.96281  -0.02496    |
 | Se  14   0.91812   0.83392   0.14299   |    6.90807   9.95490   3.37905    |
 | Se  15   0.66558   0.83458  -0.00106   |    3.42237   9.96281  -0.02496    |
 | Se  16   0.66580   0.83392   0.14299   |    3.43006   9.95490   3.37905    |
 | Se  17   0.41638   0.83362  -0.00112   |   -0.00603   9.95135  -0.02635    |
 | Se  18   0.41681   0.83319   0.14308   |    0.00288   9.94621   3.38115    |
 | Se  19   0.16725   0.83362  -0.00112   |   -3.44002   9.95135  -0.02635    |
 | Se  20   0.16639   0.83319   0.14308   |   -3.44892   9.94621   3.38115    |
 | Se  21   0.66558   0.33099  -0.00106   |    6.89319   3.95118  -0.02496    |
 | Se  22   0.66580   0.33188   0.14299   |    6.89018   3.96179   3.37905    |
 | Se  23   0.66667   0.58333   0.00485   |    5.16906   6.96351   0.11465    |
 | Se  24   0.66667   0.58333   0.13633   |    5.16906   6.96351   3.22166    |
 | Se  25   0.41542   0.58442  -0.00106   |    1.69825   6.97654  -0.02496    |
 | Se  26   0.41608   0.58420   0.14299   |    1.70894   6.97384   3.37905    |
 | Se  27   0.41542   0.33099  -0.00106   |    3.44494   3.95118  -0.02496    |
 | Se  28   0.41608   0.33188   0.14299   |    3.44795   3.96179   3.37905    |
 | Se  29   0.16537   0.33269  -0.00145   |   -0.01336   3.97144  -0.03425    |
 | Se  30   0.16541   0.33271   0.14373   |   -0.01295   3.97167   3.39647    |
 | Se  31   0.16669   0.58338   0.00109   |   -1.72302   6.96410   0.02565    |
 | Se  32   0.16661   0.58322   0.14113   |   -1.72302   6.96220   3.33507    |
 *----------------------------------------------------------------------------*
                                -----------
                                PROJECTIONS
                                -----------
  
 +----------------------------------------------------------------------------+
 |     Frac. Coord.   l mr  r        z-axis               x-axis          Z/a |
 +----------------------------------------------------------------------------+
 |  0.67  0.58  0.24  2  1  1  0.000  0.000  1.000  1.000  0.000  0.000   1.0 |
 |  0.67  0.58  0.24  2  2  1  0.000  0.000  1.000  1.000  0.000  0.000   1.0 |
 |  0.67  0.58  0.24  2  3  1  0.000  0.000  1.000  1.000  0.000  0.000   1.0 |
 |  0.67  0.58  0.24  2  4  1  0.000  0.000  1.000  1.000  0.000  0.000   1.0 |
 |  0.67  0.58  0.24  2  5  1  0.000  0.000  1.000  1.000  0.000  0.000   1.0 |
 | -0.00  0.00  0.07  2  1  1  0.000  0.000  1.000  1.000  0.000  0.000   1.0 |
 | -0.00  0.00  0.07  2  2  1  0.000  0.000  1.000  1.000  0.000  0.000   1.0 |
 | -0.00  0.00  0.07  2  3  1  0.000  0.000  1.000  1.000  0.000  0.000   1.0 |
 | -0.00  0.00  0.07  2  4  1  0.000  0.000  1.000  1.000  0.000  0.000   1.0 |
 | -0.00  0.00  0.07  2  5  1  0.000  0.000  1.000  1.000  0.000  0.000   1.0 |
 |  0.25 -0.00  0.07  2  1  1  0.000  0.000  1.000  1.000  0.000  0.000   1.0 |
 |  0.25 -0.00  0.07  2  2  1  0.000  0.000  1.000  1.000  0.000  0.000   1.0 |
 |  0.25 -0.00  0.07  2  3  1  0.000  0.000  1.000  1.000  0.000  0.000   1.0 |
 |  0.25 -0.00  0.07  2  4  1  0.000  0.000  1.000  1.000  0.000  0.000   1.0 |
 |  0.25 -0.00  0.07  2  5  1  0.000  0.000  1.000  1.000  0.000  0.000   1.0 |
 |  0.50 -0.00  0.07  2  1  1  0.000  0.000  1.000  1.000  0.000  0.000   1.0 |
 |  0.50 -0.00  0.07  2  2  1  0.000  0.000  1.000  1.000  0.000  0.000   1.0 |
 |  0.50 -0.00  0.07  2  3  1  0.000  0.000  1.000  1.000  0.000  0.000   1.0 |
 |  0.50 -0.00  0.07  2  4  1  0.000  0.000  1.000  1.000  0.000  0.000   1.0 |
 |  0.50 -0.00  0.07  2  5  1  0.000  0.000  1.000  1.000  0.000  0.000   1.0 |
 |  0.75  0.00  0.07  2  1  1  0.000  0.000  1.000  1.000  0.000  0.000   1.0 |
 |  0.75  0.00  0.07  2  2  1  0.000  0.000  1.000  1.000  0.000  0.000   1.0 |
 |  0.75  0.00  0.07  2  3  1  0.000  0.000  1.000  1.000  0.000  0.000   1.0 |
 |  0.75  0.00  0.07  2  4  1  0.000  0.000  1.000  1.000  0.000  0.000   1.0 |
 |  0.75  0.00  0.07  2  5  1  0.000  0.000  1.000  1.000  0.000  0.000   1.0 |
 |  0.75  0.25  0.07  2  1  1  0.000  0.000  1.000  1.000  0.000  0.000   1.0 |
 |  0.75  0.25  0.07  2  2  1  0.000  0.000  1.000  1.000  0.000  0.000   1.0 |
 |  0.75  0.25  0.07  2  3  1  0.000  0.000  1.000  1.000  0.000  0.000   1.0 |
 |  0.75  0.25  0.07  2  4  1  0.000  0.000  1.000  1.000  0.000  0.000   1.0 |
 |  0.75  0.25  0.07  2  5  1  0.000  0.000  1.000  1.000  0.000  0.000   1.0 |
 |  0.76  0.49  0.07  2  1  1  0.000  0.000  1.000  1.000  0.000  0.000   1.0 |
 |  0.76  0.49  0.07  2  2  1  0.000  0.000  1.000  1.000  0.000  0.000   1.0 |
 |  0.76  0.49  0.07  2  3  1  0.000  0.000  1.000  1.000  0.000  0.000   1.0 |
 |  0.76  0.49  0.07  2  4  1  0.000  0.000  1.000  1.000  0.000  0.000   1.0 |
 |  0.76  0.49  0.07  2  5  1  0.000  0.000  1.000  1.000  0.000  0.000   1.0 |
 |  0.76  0.76  0.07  2  1  1  0.000  0.000  1.000  1.000  0.000  0.000   1.0 |
 |  0.76  0.76  0.07  2  2  1  0.000  0.000  1.000  1.000  0.000  0.000   1.0 |
 |  0.76  0.76  0.07  2  3  1  0.000  0.000  1.000  1.000  0.000  0.000   1.0 |
 |  0.76  0.76  0.07  2  4  1  0.000  0.000  1.000  1.000  0.000  0.000   1.0 |
 |  0.76  0.76  0.07  2  5  1  0.000  0.000  1.000  1.000  0.000  0.000   1.0 |
 |  0.50  0.75  0.07  2  1  1  0.000  0.000  1.000  1.000  0.000  0.000   1.0 |
 |  0.50  0.75  0.07  2  2  1  0.000  0.000  1.000  1.000  0.000  0.000   1.0 |
 |  0.50  0.75  0.07  2  3  1  0.000  0.000  1.000  1.000  0.000  0.000   1.0 |
 |  0.50  0.75  0.07  2  4  1  0.000  0.000  1.000  1.000  0.000  0.000   1.0 |
 |  0.50  0.75  0.07  2  5  1  0.000  0.000  1.000  1.000  0.000  0.000   1.0 |
 |  0.25  0.75  0.07  2  1  1  0.000  0.000  1.000  1.000  0.000  0.000   1.0 |
 |  0.25  0.75  0.07  2  2  1  0.000  0.000  1.000  1.000  0.000  0.000   1.0 |
 |  0.25  0.75  0.07  2  3  1  0.000  0.000  1.000  1.000  0.000  0.000   1.0 |
 |  0.25  0.75  0.07  2  4  1  0.000  0.000  1.000  1.000  0.000  0.000   1.0 |
 |  0.25  0.75  0.07  2  5  1  0.000  0.000  1.000  1.000  0.000  0.000   1.0 |
 |  0.00  0.75  0.07  2  1  1  0.000  0.000  1.000  1.000  0.000  0.000   1.0 |
 |  0.00  0.75  0.07  2  2  1  0.000  0.000  1.000  1.000  0.000  0.000   1.0 |
 |  0.00  0.75  0.07  2  3  1  0.000  0.000  1.000  1.000  0.000  0.000   1.0 |
 |  0.00  0.75  0.07  2  4  1  0.000  0.000  1.000  1.000  0.000  0.000   1.0 |
 |  0.00  0.75  0.07  2  5  1  0.000  0.000  1.000  1.000  0.000  0.000   1.0 |
 |  0.50  0.25  0.07  2  1  1  0.000  0.000  1.000  1.000  0.000  0.000   1.0 |
 |  0.50  0.25  0.07  2  2  1  0.000  0.000  1.000  1.000  0.000  0.000   1.0 |
 |  0.50  0.25  0.07  2  3  1  0.000  0.000  1.000  1.000  0.000  0.000   1.0 |
 |  0.50  0.25  0.07  2  4  1  0.000  0.000  1.000  1.000  0.000  0.000   1.0 |
 |  0.50  0.25  0.07  2  5  1  0.000  0.000  1.000  1.000  0.000  0.000   1.0 |
 |  0.49  0.49  0.07  2  1  1  0.000  0.000  1.000  1.000  0.000  0.000   1.0 |
 |  0.49  0.49  0.07  2  2  1  0.000  0.000  1.000  1.000  0.000  0.000   1.0 |
 |  0.49  0.49  0.07  2  3  1  0.000  0.000  1.000  1.000  0.000  0.000   1.0 |
 |  0.49  0.49  0.07  2  4  1  0.000  0.000  1.000  1.000  0.000  0.000   1.0 |
 |  0.49  0.49  0.07  2  5  1  0.000  0.000  1.000  1.000  0.000  0.000   1.0 |
 |  0.25  0.50  0.07  2  1  1  0.000  0.000  1.000  1.000  0.000  0.000   1.0 |
 |  0.25  0.50  0.07  2  2  1  0.000  0.000  1.000  1.000  0.000  0.000   1.0 |
 |  0.25  0.50  0.07  2  3  1  0.000  0.000  1.000  1.000  0.000  0.000   1.0 |
 |  0.25  0.50  0.07  2  4  1  0.000  0.000  1.000  1.000  0.000  0.000   1.0 |
 |  0.25  0.50  0.07  2  5  1  0.000  0.000  1.000  1.000  0.000  0.000   1.0 |
 |  0.25  0.25  0.07  2  1  1  0.000  0.000  1.000  1.000  0.000  0.000   1.0 |
 |  0.25  0.25  0.07  2  2  1  0.000  0.000  1.000  1.000  0.000  0.000   1.0 |
 |  0.25  0.25  0.07  2  3  1  0.000  0.000  1.000  1.000  0.000  0.000   1.0 |
 |  0.25  0.25  0.07  2  4  1  0.000  0.000  1.000  1.000  0.000  0.000   1.0 |
 |  0.25  0.25  0.07  2  5  1  0.000  0.000  1.000  1.000  0.000  0.000   1.0 |
 |  0.00  0.25  0.07  2  1  1  0.000  0.000  1.000  1.000  0.000  0.000   1.0 |
 |  0.00  0.25  0.07  2  2  1  0.000  0.000  1.000  1.000  0.000  0.000   1.0 |
 |  0.00  0.25  0.07  2  3  1  0.000  0.000  1.000  1.000  0.000  0.000   1.0 |
 |  0.00  0.25  0.07  2  4  1  0.000  0.000  1.000  1.000  0.000  0.000   1.0 |
 |  0.00  0.25  0.07  2  5  1  0.000  0.000  1.000  1.000  0.000  0.000   1.0 |
 | -0.00  0.50  0.07  2  1  1  0.000  0.000  1.000  1.000  0.000  0.000   1.0 |
 | -0.00  0.50  0.07  2  2  1  0.000  0.000  1.000  1.000  0.000  0.000   1.0 |
 | -0.00  0.50  0.07  2  3  1  0.000  0.000  1.000  1.000  0.000  0.000   1.0 |
 | -0.00  0.50  0.07  2  4  1  0.000  0.000  1.000  1.000  0.000  0.000   1.0 |
 | -0.00  0.50  0.07  2  5  1  0.000  0.000  1.000  1.000  0.000  0.000   1.0 |
 |  0.17  0.08  0.00  1  1  1  0.000  0.000  1.000  1.000  0.000  0.000   1.0 |
 |  0.17  0.08  0.00  1  2  1  0.000  0.000  1.000  1.000  0.000  0.000   1.0 |
 |  0.17  0.08  0.00  1  3  1  0.000  0.000  1.000  1.000  0.000  0.000   1.0 |
 |  0.17  0.08  0.14  1  1  1  0.000  0.000  1.000  1.000  0.000  0.000   1.0 |
 |  0.17  0.08  0.14  1  2  1  0.000  0.000  1.000  1.000  0.000  0.000   1.0 |
 |  0.17  0.08  0.14  1  3  1  0.000  0.000  1.000  1.000  0.000  0.000   1.0 |
 |  0.42  0.08 -0.00  1  1  1  0.000  0.000  1.000  1.000  0.000  0.000   1.0 |
 |  0.42  0.08 -0.00  1  2  1  0.000  0.000  1.000  1.000  0.000  0.000   1.0 |
 |  0.42  0.08 -0.00  1  3  1  0.000  0.000  1.000  1.000  0.000  0.000   1.0 |
 |  0.42  0.08  0.14  1  1  1  0.000  0.000  1.000  1.000  0.000  0.000   1.0 |
 |  0.42  0.08  0.14  1  2  1  0.000  0.000  1.000  1.000  0.000  0.000   1.0 |
 |  0.42  0.08  0.14  1  3  1  0.000  0.000  1.000  1.000  0.000  0.000   1.0 |
 |  0.67  0.08  0.00  1  1  1  0.000  0.000  1.000  1.000  0.000  0.000   1.0 |
 |  0.67  0.08  0.00  1  2  1  0.000  0.000  1.000  1.000  0.000  0.000   1.0 |
 |  0.67  0.08  0.00  1  3  1  0.000  0.000  1.000  1.000  0.000  0.000   1.0 |
 |  0.67  0.08  0.14  1  1  1  0.000  0.000  1.000  1.000  0.000  0.000   1.0 |
 |  0.67  0.08  0.14  1  2  1  0.000  0.000  1.000  1.000  0.000  0.000   1.0 |
 |  0.67  0.08  0.14  1  3  1  0.000  0.000  1.000  1.000  0.000  0.000   1.0 |
 |  0.92  0.08 -0.00  1  1  1  0.000  0.000  1.000  1.000  0.000  0.000   1.0 |
 |  0.92  0.08 -0.00  1  2  1  0.000  0.000  1.000  1.000  0.000  0.000   1.0 |
 |  0.92  0.08 -0.00  1  3  1  0.000  0.000  1.000  1.000  0.000  0.000   1.0 |
 |  0.92  0.08  0.14  1  1  1  0.000  0.000  1.000  1.000  0.000  0.000   1.0 |
 |  0.92  0.08  0.14  1  2  1  0.000  0.000  1.000  1.000  0.000  0.000   1.0 |
 |  0.92  0.08  0.14  1  3  1  0.000  0.000  1.000  1.000  0.000  0.000   1.0 |
 |  0.92  0.33 -0.00  1  1  1  0.000  0.000  1.000  1.000  0.000  0.000   1.0 |
 |  0.92  0.33 -0.00  1  2  1  0.000  0.000  1.000  1.000  0.000  0.000   1.0 |
 |  0.92  0.33 -0.00  1  3  1  0.000  0.000  1.000  1.000  0.000  0.000   1.0 |
 |  0.92  0.33  0.14  1  1  1  0.000  0.000  1.000  1.000  0.000  0.000   1.0 |
 |  0.92  0.33  0.14  1  2  1  0.000  0.000  1.000  1.000  0.000  0.000   1.0 |
 |  0.92  0.33  0.14  1  3  1  0.000  0.000  1.000  1.000  0.000  0.000   1.0 |
 |  0.92  0.58 -0.00  1  1  1  0.000  0.000  1.000  1.000  0.000  0.000   1.0 |
 |  0.92  0.58 -0.00  1  2  1  0.000  0.000  1.000  1.000  0.000  0.000   1.0 |
 |  0.92  0.58 -0.00  1  3  1  0.000  0.000  1.000  1.000  0.000  0.000   1.0 |
 |  0.92  0.58  0.14  1  1  1  0.000  0.000  1.000  1.000  0.000  0.000   1.0 |
 |  0.92  0.58  0.14  1  2  1  0.000  0.000  1.000  1.000  0.000  0.000   1.0 |
 |  0.92  0.58  0.14  1  3  1  0.000  0.000  1.000  1.000  0.000  0.000   1.0 |
 |  0.92  0.83 -0.00  1  1  1  0.000  0.000  1.000  1.000  0.000  0.000   1.0 |
 |  0.92  0.83 -0.00  1  2  1  0.000  0.000  1.000  1.000  0.000  0.000   1.0 |
 |  0.92  0.83 -0.00  1  3  1  0.000  0.000  1.000  1.000  0.000  0.000   1.0 |
 |  0.92  0.83  0.14  1  1  1  0.000  0.000  1.000  1.000  0.000  0.000   1.0 |
 |  0.92  0.83  0.14  1  2  1  0.000  0.000  1.000  1.000  0.000  0.000   1.0 |
 |  0.92  0.83  0.14  1  3  1  0.000  0.000  1.000  1.000  0.000  0.000   1.0 |
 |  0.67  0.83 -0.00  1  1  1  0.000  0.000  1.000  1.000  0.000  0.000   1.0 |
 |  0.67  0.83 -0.00  1  2  1  0.000  0.000  1.000  1.000  0.000  0.000   1.0 |
 |  0.67  0.83 -0.00  1  3  1  0.000  0.000  1.000  1.000  0.000  0.000   1.0 |
 |  0.67  0.83  0.14  1  1  1  0.000  0.000  1.000  1.000  0.000  0.000   1.0 |
 |  0.67  0.83  0.14  1  2  1  0.000  0.000  1.000  1.000  0.000  0.000   1.0 |
 |  0.67  0.83  0.14  1  3  1  0.000  0.000  1.000  1.000  0.000  0.000   1.0 |
 |  0.42  0.83 -0.00  1  1  1  0.000  0.000  1.000  1.000  0.000  0.000   1.0 |
 |  0.42  0.83 -0.00  1  2  1  0.000  0.000  1.000  1.000  0.000  0.000   1.0 |
 |  0.42  0.83 -0.00  1  3  1  0.000  0.000  1.000  1.000  0.000  0.000   1.0 |
 |  0.42  0.83  0.14  1  1  1  0.000  0.000  1.000  1.000  0.000  0.000   1.0 |
 |  0.42  0.83  0.14  1  2  1  0.000  0.000  1.000  1.000  0.000  0.000   1.0 |
 |  0.42  0.83  0.14  1  3  1  0.000  0.000  1.000  1.000  0.000  0.000   1.0 |
 |  0.17  0.83 -0.00  1  1  1  0.000  0.000  1.000  1.000  0.000  0.000   1.0 |
 |  0.17  0.83 -0.00  1  2  1  0.000  0.000  1.000  1.000  0.000  0.000   1.0 |
 |  0.17  0.83 -0.00  1  3  1  0.000  0.000  1.000  1.000  0.000  0.000   1.0 |
 |  0.17  0.83  0.14  1  1  1  0.000  0.000  1.000  1.000  0.000  0.000   1.0 |
 |  0.17  0.83  0.14  1  2  1  0.000  0.000  1.000  1.000  0.000  0.000   1.0 |
 |  0.17  0.83  0.14  1  3  1  0.000  0.000  1.000  1.000  0.000  0.000   1.0 |
 |  0.67  0.33 -0.00  1  1  1  0.000  0.000  1.000  1.000  0.000  0.000   1.0 |
 |  0.67  0.33 -0.00  1  2  1  0.000  0.000  1.000  1.000  0.000  0.000   1.0 |
 |  0.67  0.33 -0.00  1  3  1  0.000  0.000  1.000  1.000  0.000  0.000   1.0 |
 |  0.67  0.33  0.14  1  1  1  0.000  0.000  1.000  1.000  0.000  0.000   1.0 |
 |  0.67  0.33  0.14  1  2  1  0.000  0.000  1.000  1.000  0.000  0.000   1.0 |
 |  0.67  0.33  0.14  1  3  1  0.000  0.000  1.000  1.000  0.000  0.000   1.0 |
 |  0.67  0.58  0.00  1  1  1  0.000  0.000  1.000  1.000  0.000  0.000   1.0 |
 |  0.67  0.58  0.00  1  2  1  0.000  0.000  1.000  1.000  0.000  0.000   1.0 |
 |  0.67  0.58  0.00  1  3  1  0.000  0.000  1.000  1.000  0.000  0.000   1.0 |
 |  0.67  0.58  0.14  1  1  1  0.000  0.000  1.000  1.000  0.000  0.000   1.0 |
 |  0.67  0.58  0.14  1  2  1  0.000  0.000  1.000  1.000  0.000  0.000   1.0 |
 |  0.67  0.58  0.14  1  3  1  0.000  0.000  1.000  1.000  0.000  0.000   1.0 |
 |  0.42  0.58 -0.00  1  1  1  0.000  0.000  1.000  1.000  0.000  0.000   1.0 |
 |  0.42  0.58 -0.00  1  2  1  0.000  0.000  1.000  1.000  0.000  0.000   1.0 |
 |  0.42  0.58 -0.00  1  3  1  0.000  0.000  1.000  1.000  0.000  0.000   1.0 |
 |  0.42  0.58  0.14  1  1  1  0.000  0.000  1.000  1.000  0.000  0.000   1.0 |
 |  0.42  0.58  0.14  1  2  1  0.000  0.000  1.000  1.000  0.000  0.000   1.0 |
 |  0.42  0.58  0.14  1  3  1  0.000  0.000  1.000  1.000  0.000  0.000   1.0 |
 |  0.42  0.33 -0.00  1  1  1  0.000  0.000  1.000  1.000  0.000  0.000   1.0 |
 |  0.42  0.33 -0.00  1  2  1  0.000  0.000  1.000  1.000  0.000  0.000   1.0 |
 |  0.42  0.33 -0.00  1  3  1  0.000  0.000  1.000  1.000  0.000  0.000   1.0 |
 |  0.42  0.33  0.14  1  1  1  0.000  0.000  1.000  1.000  0.000  0.000   1.0 |
 |  0.42  0.33  0.14  1  2  1  0.000  0.000  1.000  1.000  0.000  0.000   1.0 |
 |  0.42  0.33  0.14  1  3  1  0.000  0.000  1.000  1.000  0.000  0.000   1.0 |
 |  0.17  0.33 -0.00  1  1  1  0.000  0.000  1.000  1.000  0.000  0.000   1.0 |
 |  0.17  0.33 -0.00  1  2  1  0.000  0.000  1.000  1.000  0.000  0.000   1.0 |
 |  0.17  0.33 -0.00  1  3  1  0.000  0.000  1.000  1.000  0.000  0.000   1.0 |
 |  0.17  0.33  0.14  1  1  1  0.000  0.000  1.000  1.000  0.000  0.000   1.0 |
 |  0.17  0.33  0.14  1  2  1  0.000  0.000  1.000  1.000  0.000  0.000   1.0 |
 |  0.17  0.33  0.14  1  3  1  0.000  0.000  1.000  1.000  0.000  0.000   1.0 |
 |  0.17  0.58  0.00  1  1  1  0.000  0.000  1.000  1.000  0.000  0.000   1.0 |
 |  0.17  0.58  0.00  1  2  1  0.000  0.000  1.000  1.000  0.000  0.000   1.0 |
 |  0.17  0.58  0.00  1  3  1  0.000  0.000  1.000  1.000  0.000  0.000   1.0 |
 |  0.17  0.58  0.14  1  1  1  0.000  0.000  1.000  1.000  0.000  0.000   1.0 |
 |  0.17  0.58  0.14  1  2  1  0.000  0.000  1.000  1.000  0.000  0.000   1.0 |
 |  0.17  0.58  0.14  1  3  1  0.000  0.000  1.000  1.000  0.000  0.000   1.0 |
 +----------------------------------------------------------------------------+
  
                                ------------
                                K-POINT GRID
                                ------------
  
             Grid size =  4 x  4 x  1      Total points =   16
  
 *----------------------------------------------------------------------------*
 | k-point      Fractional Coordinate        Cartesian Coordinate (Ang^-1)    |
 +----------------------------------------------------------------------------+
 |     1    0.00000   0.00000   0.00000   |    0.00000   0.00000   0.00000    |
 |     2    0.00000   0.25000   0.00000   |    0.00000   0.13159   0.00000    |
 |     3    0.00000   0.50000   0.00000   |    0.00000   0.26317   0.00000    |
 |     4    0.00000   0.75000   0.00000   |    0.00000   0.39476   0.00000    |
 |     5    0.25000   0.00000   0.00000   |    0.11396   0.06579   0.00000    |
 |     6    0.25000   0.25000   0.00000   |    0.11396   0.19738   0.00000    |
 |     7    0.25000   0.50000   0.00000   |    0.11396   0.32896   0.00000    |
 |     8    0.25000   0.75000   0.00000   |    0.11396   0.46055   0.00000    |
 |     9    0.50000   0.00000   0.00000   |    0.22791   0.13159   0.00000    |
 |    10    0.50000   0.25000   0.00000   |    0.22791   0.26317   0.00000    |
 |    11    0.50000   0.50000   0.00000   |    0.22791   0.39476   0.00000    |
 |    12    0.50000   0.75000   0.00000   |    0.22791   0.52634   0.00000    |
 |    13    0.75000   0.00000   0.00000   |    0.34187   0.19738   0.00000    |
 |    14    0.75000   0.25000   0.00000   |    0.34187   0.32896   0.00000    |
 |    15    0.75000   0.50000   0.00000   |    0.34187   0.46055   0.00000    |
 |    16    0.75000   0.75000   0.00000   |    0.34187   0.59214   0.00000    |
 *----------------------------------------------------------------------------*
  
  
 *---------------------------------- MAIN ------------------------------------*
 |  Number of Wannier Functions               :               181             |
 |  Number of Objective Wannier Functions     :               181             |
 |  Number of input Bloch states              :               450             |
 |  Output verbosity (1=low, 5=high)          :                 3             |
 |  Timing Level (1=low, 5=high)              :                 1             |
 |  Optimisation (0=memory, 3=speed)          :                 3             |
 |  Length Unit                               :               Ang             |
 |  Post-processing setup (write *.nnkp)      :                 F             |
 |  Using Gamma-only branch of algorithms     :                 F             |
 |  CP code post-processing                   :                 F             |
 |  Wavefunction (UNK) file-type              :       unformatted             |
 |  Wavefunction spin channel                 :                up             |
 *----------------------------------------------------------------------------*
 *------------------------------- WANNIERISE ---------------------------------*
 |  Total number of iterations                :               500             |
 |  Number of CG steps before reset           :                 5             |
 |  Trial step length for line search         :             2.000             |
 |  Convergence tolerence                     :         0.100E-09             |
 |  Convergence window                        :                -1             |
 |  Iterations between writing output         :                50             |
 |  Iterations between backing up to disk     :               100             |
 |  Write r^2_nm to file                      :                 F             |
 |  Write xyz WF centres to file              :                 T             |
 |  Write on-site energies <0n|H|0n> to file  :                 F             |
 |  Use guiding centre to control phases      :                 T             |
 |  Use phases for initial projections        :                 F             |
 |  Iterations before starting guiding centres:                 0             |
 |  Iterations between using guiding centres  :                 1             |
 |  Perform selective localization            :                 F             |
 |  Use constrains in selective localization  :                 F             |
 |  Value of the Lagrange multiplier          :         0.100E+01             |
 *----------------------------------------------------------------------------*
 *------------------------------- DISENTANGLE --------------------------------*
 |  Using band disentanglement                :                 T             |
 |  Total number of iterations                :              4000             |
 |  Mixing ratio                              :             0.500             |
 |  Convergence tolerence                     :         1.000E-10             |
 |  Convergence window                        :                 3             |
 *----------------------------------------------------------------------------*
 *-------------------------------- PLOTTING ----------------------------------*
 |  Plotting Wannier functions                :                 F             |
 |   Size of supercell for plotting           :     2x    2x    2             |
 |   Plotting mode (molecule or crystal)      :           crystal             |
 |   Plotting format                          :          xcrysden             |
 |   Plot radius                              :             3.500             |
 |   Plot scale                               :             1.000             |
 *----------------------------------------------------------------------------*
 |  Plotting Fermi surface                    :                 F             |
 |   Number of plotting points (along b_1)    :                50             |
 |   Plotting format                          :          xcrysden             |
 *----------------------------------------------------------------------------*
 |  Plotting interpolated bandstructure       :                 T             |
 |   Number of K-path sections                :                 3             |
 |   Divisions along first K-path section     :               100             |
 |   Output format                            :           gnuplot             |
 |   Output mode                              :               s-k             |
 *----------------------------------------------------------------------------*
 |   K-space path sections:                                                   |
 |    From: Γ      0.000  0.000  0.000     To: M       0.500  0.000  0.000   |
 |    From: M       0.500  0.000  0.000     To: K       0.333  0.333  0.000   |
 |    From: K       0.333  0.333  0.000     To: Γ      0.000  0.000  0.000   |
 *----------------------------------------------------------------------------*
 |  Plotting Hamiltonian in WF basis          :                 T             |
 *----------------------------------------------------------------------------*
 |  Writing data for Van der Waals post-proc  :                 F             |
 *----------------------------------------------------------------------------*
 *------------------------------- TRANSPORT ----------------------------------*
 |  Transport mode                            :              bulk             |
 |   Hamiltonian from external files          :                 F             |
 |   System extended in                       :              none             |
 |   Centre of the unit cell to which WF are translated (fract. coords):      |
 |                                       0.000000,    0.000000,    0.000000   |
 |  Fermi energy (eV)                         :             0.000             |
 *----------------------------------------------------------------------------*
 Time to read parameters        0.026 (sec)

 *---------------------------------- K-MESH ----------------------------------*
 +----------------------------------------------------------------------------+
 |                    Distance to Nearest-Neighbour Shells                    |
 |                    ------------------------------------                    |
 |          Shell             Distance (Ang^-1)          Multiplicity         |
 |          -----             -----------------          ------------         |
 |             1                   0.131586                      6            |
 |             2                   0.227913                      6            |
 |             3                   0.263171                      6            |
 |             4                   0.265883                      2            |
 |             5                   0.296662                     12            |
 |             6                   0.348143                     12            |
 |             7                   0.350197                     12            |
 |             8                   0.374103                     12            |
 |             9                   0.394757                      6            |
 |            10                   0.438061                     24            |
 |            11                   0.455826                      6            |
 |            12                   0.474439                     12            |
 |            13                   0.475948                     12            |
 |            14                   0.526343                      6            |
 |            15                   0.527704                     12            |
 |            16                   0.531765                      2            |
 |            17                   0.543862                     24            |
 |            18                   0.547804                     12            |
 |            19                   0.573569                     12            |
 |            20                   0.578549                     12            |
 |            21                   0.589686                     12            |
 |            22                   0.593324                     12            |
 |            23                   0.603001                     12            |
 |            24                   0.632198                     24            |
 |            25                   0.635592                     24            |
 |            26                   0.657928                      6            |
 |            27                   0.659018                     24            |
 |            28                   0.662274                     12            |
 |            29                   0.683739                      6            |
 |            30                   0.696286                     12            |
 |            31                   0.700394                     12            |
 |            32                   0.709622                     12            |
 |            33                   0.712647                     24            |
 |            34                   0.732638                     12            |
 |            35                   0.733616                     12            |
 |            36                   0.745324                     24            |
 +----------------------------------------------------------------------------+
 | The b-vectors are chosen automatically                                     |
 | Shell:  1 Multiplicity:  6                                                 |
 | b-vector 1 :        0.000000    0.131586    0.000000      (Ang^-1)         |
 | b-vector 2 :        0.113957    0.065793    0.000000      (Ang^-1)         |
 | b-vector 3 :        0.000000   -0.131586    0.000000      (Ang^-1)         |
 | b-vector 4 :        0.113957   -0.065793    0.000000      (Ang^-1)         |
 | b-vector 5 :       -0.113957   -0.065793    0.000000      (Ang^-1)         |
 | b-vector 6 :       -0.113957    0.065793    0.000000      (Ang^-1)         |
 | Shell:  1 w_b   19.2513662      (Ang^2)                                    |
 | B1 condition is not satisfied: Adding another shell                        |
 | Shell:  2 Multiplicity:  6                                                 |
 | b-vector 1 :        0.113957    0.197379    0.000000      (Ang^-1)         |
 | b-vector 2 :        0.113957   -0.197379    0.000000      (Ang^-1)         |
 | b-vector 3 :        0.227913   -0.000000    0.000000      (Ang^-1)         |
 | b-vector 4 :       -0.227913    0.000000    0.000000      (Ang^-1)         |
 | b-vector 5 :       -0.113957    0.197379    0.000000      (Ang^-1)         |
 | b-vector 6 :       -0.113957   -0.197379    0.000000      (Ang^-1)         |
 | SVD found small singular value, Rejecting this shell and trying the next   |
 | Shell:  3 Multiplicity:  6                                                 |
 | b-vector 1 :        0.000000    0.263171    0.000000      (Ang^-1)         |
 | b-vector 2 :        0.227913    0.131586    0.000000      (Ang^-1)         |
 | b-vector 3 :        0.000000   -0.263171    0.000000      (Ang^-1)         |
 | b-vector 4 :        0.227913   -0.131586    0.000000      (Ang^-1)         |
 | b-vector 5 :       -0.227913   -0.131586    0.000000      (Ang^-1)         |
 | b-vector 6 :       -0.227913    0.131586    0.000000      (Ang^-1)         |
 | This shell is linearly dependent on existing shells: Trying next shell     |
 | Shell:  4 Multiplicity:  2                                                 |
 | b-vector 1 :        0.000000    0.000000    0.265883      (Ang^-1)         |
 | b-vector 2 :        0.000000    0.000000   -0.265883      (Ang^-1)         |
 | Shell:  1 w_b   19.2513662      (Ang^2)                                    |
 | Shell:  2 w_b    7.0727819      (Ang^2)                                    |
 | The following shells are used:   1,  4                                     |
 +----------------------------------------------------------------------------+
 |                        Shell   # Nearest-Neighbours                        |
 |                        -----   --------------------                        |
 |                          1               6                                 |
 |                          4               2                                 |
 +----------------------------------------------------------------------------+
 | Completeness relation is fully satisfied [Eq. (B1), PRB 56, 12847 (1997)]  |
 +----------------------------------------------------------------------------+
 |                  b_k Vectors (Ang^-1) and Weights (Ang^2)                  |
 |                  ----------------------------------------                  |
 |            No.         b_k(x)      b_k(y)      b_k(z)        w_b           |
 |            ---        --------------------------------     --------        |
 |             1         0.000000    0.131586    0.000000    19.251366        |
 |             2         0.113957    0.065793    0.000000    19.251366        |
 |             3         0.000000   -0.131586    0.000000    19.251366        |
 |             4         0.113957   -0.065793    0.000000    19.251366        |
 |             5        -0.113957   -0.065793    0.000000    19.251366        |
 |             6        -0.113957    0.065793    0.000000    19.251366        |
 |             7         0.000000    0.000000    0.265883     7.072782        |
 |             8         0.000000    0.000000   -0.265883     7.072782        |
 +----------------------------------------------------------------------------+
 |                           b_k Directions (Ang^-1)                          |
 |                           -----------------------                          |
 |            No.           x           y           z                         |
 |            ---        --------------------------------                     |
 |             1         0.000000    0.131586    0.000000                     |
 |             2         0.113957    0.065793    0.000000                     |
 |             3         0.113957   -0.065793    0.000000                     |
 |             4         0.000000    0.000000    0.265883                     |
 +----------------------------------------------------------------------------+
  
 Time to get kmesh              0.020 (sec)
 *============================================================================*
 |                              MEMORY ESTIMATE                               |
 |         Maximum RAM allocated during each phase of the calculation         |
 *============================================================================*
 |                        Disentanglement          550.06 Mb                  |
 |                            Wannierise:          183.41 Mb                  |
 |                                                                            |
 |   N.B. by setting optimisation=0 memory usage will be reduced to:          |
 |                        Disentanglement          550.06 Mb                  |
 |                            Wannierise:          119.42 Mb                  |
 |   However, this will result in more i/o and slow down the calculation      |
 |                          plot_wannier:          183.41 Mb                  |
 *----------------------------------------------------------------------------*
  
 Starting a new Wannier90 calculation ...


 Reading overlaps from 1Fe_initialconf.up.mmn    :  Created on 11Jul2023 at 18:56:34

 Reading projections from 1Fe_initialconf.up.amn :  Created on 11Jul2023 at 18:38: 3

 Time to read overlaps         62.665 (sec)

 *------------------------------- DISENTANGLE --------------------------------*
 +----------------------------------------------------------------------------+
 |                              Energy  Windows                               |
 |                              ---------------                               |
 |                   Outer:  -30.00000  to   30.00000  (eV)                   |
 |                   Inner:   -6.00000  to    2.50000  (eV)                   |
 +----------------------------------------------------------------------------+
 |                        K-points with Frozen States                         |
 |                        ---------------------------                         |
 |     1     2     3     4     5     6     7     8     9    10    11    12    |
 |    13    14    15    16                                                    |
 +----------------------------------------------------------------------------+
   Number of target bands to extract:  181
 +----------------------------------------------------------------------------+
 |                                  Windows                                   |
 |                                  -------                                   |
 |               K-point      Ndimwin     Ndimfroz    Nfirstwin               |
 |               ----------------------------------------------               |
 |                   1          382          161          69                  |
 |                   2          382          161          69                  |
 |                   3          382          164          69                  |
 |                   4          382          161          69                  |
 |                   5          382          161          69                  |
 |                   6          382          165          69                  |
 |                   7          382          165          69                  |
 |                   8          382          161          69                  |
 |                   9          382          164          69                  |
 |                  10          382          165          69                  |
 |                  11          382          164          69                  |
 |                  12          382          165          69                  |
 |                  13          382          161          69                  |
 |                  14          382          161          69                  |
 |                  15          382          165          69                  |
 |                  16          382          165          69                  |
 +----------------------------------------------------------------------------+

                   Unitarised projection of Wannier functions                  
                   ------------------------------------------                  
   A_mn = <psi_m|g_n> --> S = A.A^+ --> U = S^-1/2.A
   In dis_project... done
   Using an inner window (linner = T)
   In dis_proj_froz...
 K-point   1 ndimwin: 382 we want the 20 leading eigenvector(s) of QPQ
  lambda(  1)= -0.000000000000
  lambda(  2)= -0.000000000000
  lambda(  3)= -0.000000000000
  lambda(  4)= -0.000000000000
  lambda(  5)= -0.000000000000
  lambda(  6)= -0.000000000000
  lambda(  7)= -0.000000000000
  lambda(  8)= -0.000000000000
  lambda(  9)= -0.000000000000
  lambda( 10)= -0.000000000000
  lambda( 11)= -0.000000000000
  lambda( 12)= -0.000000000000
  lambda( 13)= -0.000000000000
  lambda( 14)= -0.000000000000
  lambda( 15)= -0.000000000000
  lambda( 16)= -0.000000000000
  lambda( 17)= -0.000000000000
  lambda( 18)= -0.000000000000
  lambda( 19)= -0.000000000000
  lambda( 20)= -0.000000000000
  lambda( 21)= -0.000000000000
  lambda( 22)= -0.000000000000
  lambda( 23)= -0.000000000000
  lambda( 24)= -0.000000000000
  lambda( 25)= -0.000000000000
  lambda( 26)= -0.000000000000
  lambda( 27)= -0.000000000000
  lambda( 28)= -0.000000000000
  lambda( 29)= -0.000000000000
  lambda( 30)= -0.000000000000
  lambda( 31)= -0.000000000000
  lambda( 32)= -0.000000000000
  lambda( 33)= -0.000000000000
  lambda( 34)= -0.000000000000
  lambda( 35)= -0.000000000000
  lambda( 36)= -0.000000000000
  lambda( 37)= -0.000000000000
  lambda( 38)= -0.000000000000
  lambda( 39)= -0.000000000000
  lambda( 40)= -0.000000000000
  lambda( 41)= -0.000000000000
  lambda( 42)= -0.000000000000
  lambda( 43)= -0.000000000000
  lambda( 44)= -0.000000000000
  lambda( 45)= -0.000000000000
  lambda( 46)= -0.000000000000
  lambda( 47)= -0.000000000000
  lambda( 48)= -0.000000000000
  lambda( 49)= -0.000000000000
  lambda( 50)= -0.000000000000
  lambda( 51)= -0.000000000000
  lambda( 52)= -0.000000000000
  lambda( 53)= -0.000000000000
  lambda( 54)= -0.000000000000
  lambda( 55)= -0.000000000000
  lambda( 56)= -0.000000000000
  lambda( 57)= -0.000000000000
  lambda( 58)= -0.000000000000
  lambda( 59)= -0.000000000000
  lambda( 60)= -0.000000000000
  lambda( 61)= -0.000000000000
  lambda( 62)= -0.000000000000
  lambda( 63)= -0.000000000000
  lambda( 64)= -0.000000000000
  lambda( 65)= -0.000000000000
  lambda( 66)= -0.000000000000
  lambda( 67)= -0.000000000000
  lambda( 68)= -0.000000000000
  lambda( 69)= -0.000000000000
  lambda( 70)= -0.000000000000
  lambda( 71)= -0.000000000000
  lambda( 72)= -0.000000000000
  lambda( 73)= -0.000000000000
  lambda( 74)= -0.000000000000
  lambda( 75)= -0.000000000000
  lambda( 76)= -0.000000000000
  lambda( 77)= -0.000000000000
  lambda( 78)= -0.000000000000
  lambda( 79)= -0.000000000000
  lambda( 80)= -0.000000000000
  lambda( 81)= -0.000000000000
  lambda( 82)= -0.000000000000
  lambda( 83)= -0.000000000000
  lambda( 84)= -0.000000000000
  lambda( 85)= -0.000000000000
  lambda( 86)= -0.000000000000
  lambda( 87)= -0.000000000000
  lambda( 88)= -0.000000000000
  lambda( 89)= -0.000000000000
  lambda( 90)= -0.000000000000
  lambda( 91)= -0.000000000000
  lambda( 92)= -0.000000000000
  lambda( 93)= -0.000000000000
  lambda( 94)= -0.000000000000
  lambda( 95)= -0.000000000000
  lambda( 96)= -0.000000000000
  lambda( 97)= -0.000000000000
  lambda( 98)= -0.000000000000
  lambda( 99)=  0.000000000000
  lambda(100)=  0.000000000000
  lambda(101)=  0.000000000000
  lambda(102)=  0.000000000000
  lambda(103)=  0.000000000000
  lambda(104)=  0.000000000000
  lambda(105)=  0.000000000000
  lambda(106)=  0.000000000000
  lambda(107)=  0.000000000000
  lambda(108)=  0.000000000000
  lambda(109)=  0.000000000000
  lambda(110)=  0.000000000000
  lambda(111)=  0.000000000000
  lambda(112)=  0.000000000000
  lambda(113)=  0.000000000000
  lambda(114)=  0.000000000000
  lambda(115)=  0.000000000000
  lambda(116)=  0.000000000000
  lambda(117)=  0.000000000000
  lambda(118)=  0.000000000000
  lambda(119)=  0.000000000000
  lambda(120)=  0.000000000000
  lambda(121)=  0.000000000000
  lambda(122)=  0.000000000000
  lambda(123)=  0.000000000000
  lambda(124)=  0.000000000000
  lambda(125)=  0.000000000000
  lambda(126)=  0.000000000000
  lambda(127)=  0.000000000000
  lambda(128)=  0.000000000000
  lambda(129)=  0.000000000000
  lambda(130)=  0.000000000000
  lambda(131)=  0.000000000000
  lambda(132)=  0.000000000000
  lambda(133)=  0.000000000000
  lambda(134)=  0.000000000000
  lambda(135)=  0.000000000000
  lambda(136)=  0.000000000000
  lambda(137)=  0.000000000000
  lambda(138)=  0.000000000000
  lambda(139)=  0.000000000000
  lambda(140)=  0.000000000000
  lambda(141)=  0.000000000000
  lambda(142)=  0.000000000000
  lambda(143)=  0.000000000000
  lambda(144)=  0.000000000000
  lambda(145)=  0.000000000000
  lambda(146)=  0.000000000000
  lambda(147)=  0.000000000000
  lambda(148)=  0.000000000000
  lambda(149)=  0.000000000000
  lambda(150)=  0.000000000000
  lambda(151)=  0.000000000000
  lambda(152)=  0.000000000000
  lambda(153)=  0.000000000000
  lambda(154)=  0.000000000000
  lambda(155)=  0.000000000000
  lambda(156)=  0.000000000000
  lambda(157)=  0.000000000000
  lambda(158)=  0.000000000000
  lambda(159)=  0.000000000000
  lambda(160)=  0.000000000000
  lambda(161)=  0.000000000000
  lambda(162)=  0.000000000000
  lambda(163)=  0.000000000000
  lambda(164)=  0.000000000000
  lambda(165)=  0.000000000000
  lambda(166)=  0.000000000000
  lambda(167)=  0.000000000000
  lambda(168)=  0.000000000000
  lambda(169)=  0.000000000000
  lambda(170)=  0.000000000000
  lambda(171)=  0.000000000000
  lambda(172)=  0.000000000000
  lambda(173)=  0.000000000000
  lambda(174)=  0.000000000000
  lambda(175)=  0.000000000000
  lambda(176)=  0.000000000000
  lambda(177)=  0.000000000000
  lambda(178)=  0.000000000000
  lambda(179)=  0.000000000000
  lambda(180)=  0.000000000000
  lambda(181)=  0.000000000000
  lambda(182)=  0.000000000000
  lambda(183)=  0.000000000000
  lambda(184)=  0.000000000000
  lambda(185)=  0.000000000000
  lambda(186)=  0.000000000000
  lambda(187)=  0.000000000000
  lambda(188)=  0.000000000000
  lambda(189)=  0.000000000000
  lambda(190)=  0.000000000000
  lambda(191)=  0.000000000000
  lambda(192)=  0.000000000000
  lambda(193)=  0.000000000000
  lambda(194)=  0.000000000000
  lambda(195)=  0.000000000000
  lambda(196)=  0.000000000000
  lambda(197)=  0.000000000000
  lambda(198)=  0.000000000000
  lambda(199)=  0.000000000000
  lambda(200)=  0.000000000000
  lambda(201)=  0.000000000000
  lambda(202)=  0.000000000000
  lambda(203)=  0.000000000000
  lambda(204)=  0.000000000000
  lambda(205)=  0.000000000000
  lambda(206)=  0.000000000001
  lambda(207)=  0.000000000001
  lambda(208)=  0.000000000002
  lambda(209)=  0.000000005489
  lambda(210)=  0.000000007985
  lambda(211)=  0.000000022331
  lambda(212)=  0.000000056803
  lambda(213)=  0.000000096068
  lambda(214)=  0.000000117721
  lambda(215)=  0.000000143115
  lambda(216)=  0.000000316110
  lambda(217)=  0.000000685125
  lambda(218)=  0.000000685743
  lambda(219)=  0.000001104817
  lambda(220)=  0.000001546405
  lambda(221)=  0.000002283506
  lambda(222)=  0.000006349470
  lambda(223)=  0.000008596514
  lambda(224)=  0.000009017936
  lambda(225)=  0.000021589172
  lambda(226)=  0.000030890036
  lambda(227)=  0.000032269952
  lambda(228)=  0.000064385202
  lambda(229)=  0.000065236408
  lambda(230)=  0.000078948233
  lambda(231)=  0.000087649428
  lambda(232)=  0.000119387915
  lambda(233)=  0.000134824973
  lambda(234)=  0.000183958027
  lambda(235)=  0.000187658206
  lambda(236)=  0.000237402670
  lambda(237)=  0.000247066571
  lambda(238)=  0.000300161370
  lambda(239)=  0.000303721018
  lambda(240)=  0.000303814991
  lambda(241)=  0.000309347508
  lambda(242)=  0.000332079514
  lambda(243)=  0.000445810479
  lambda(244)=  0.000584882313
  lambda(245)=  0.000624333500
  lambda(246)=  0.000641637925
  lambda(247)=  0.000712517082
  lambda(248)=  0.000825931250
  lambda(249)=  0.000911028343
  lambda(250)=  0.001169460785
  lambda(251)=  0.001178307861
  lambda(252)=  0.001424662523
  lambda(253)=  0.001465024866
  lambda(254)=  0.001961167464
  lambda(255)=  0.002065743646
  lambda(256)=  0.002260996026
  lambda(257)=  0.003159592801
  lambda(258)=  0.003461093773
  lambda(259)=  0.003496150702
  lambda(260)=  0.004712655132
  lambda(261)=  0.004757968908
  lambda(262)=  0.005928732769
  lambda(263)=  0.005950420407
  lambda(264)=  0.006430805391
  lambda(265)=  0.006516978434
  lambda(266)=  0.006520237156
  lambda(267)=  0.006816520632
  lambda(268)=  0.007547067168
  lambda(269)=  0.008055783444
  lambda(270)=  0.010403867417
  lambda(271)=  0.010463442616
  lambda(272)=  0.010739997483
  lambda(273)=  0.011834833258
  lambda(274)=  0.011953053039
  lambda(275)=  0.013471357797
  lambda(276)=  0.013515679323
  lambda(277)=  0.015546498237
  lambda(278)=  0.016012743844
  lambda(279)=  0.016094276414
  lambda(280)=  0.016128589116
  lambda(281)=  0.018497649507
  lambda(282)=  0.019338599662
  lambda(283)=  0.019375835986
  lambda(284)=  0.020016153453
  lambda(285)=  0.021339733782
  lambda(286)=  0.022154862325
  lambda(287)=  0.023955119017
  lambda(288)=  0.024345110388
  lambda(289)=  0.026205421172
  lambda(290)=  0.030129544099
  lambda(291)=  0.032244991408
  lambda(292)=  0.032251418012
  lambda(293)=  0.032662225328
  lambda(294)=  0.034379267247
  lambda(295)=  0.034595510982
  lambda(296)=  0.034598218732
  lambda(297)=  0.035594554963
  lambda(298)=  0.035703962823
  lambda(299)=  0.044596122401
  lambda(300)=  0.047007595939
  lambda(301)=  0.049940246547
  lambda(302)=  0.050377561112
  lambda(303)=  0.052040773588
  lambda(304)=  0.055433902779
  lambda(305)=  0.056045770532
  lambda(306)=  0.057001500246
  lambda(307)=  0.057506298634
  lambda(308)=  0.065021026358
  lambda(309)=  0.065142494404
  lambda(310)=  0.066339063855
  lambda(311)=  0.066340714424
  lambda(312)=  0.066902928200
  lambda(313)=  0.068276730786
  lambda(314)=  0.068524444151
  lambda(315)=  0.068985020008
  lambda(316)=  0.070342886231
  lambda(317)=  0.071381985658
  lambda(318)=  0.071848737560
  lambda(319)=  0.079375489684
  lambda(320)=  0.079384475360
  lambda(321)=  0.091801313117
  lambda(322)=  0.116296572756
  lambda(323)=  0.118558394641
  lambda(324)=  0.118573276364
  lambda(325)=  0.118632419326
  lambda(326)=  0.120709780577
  lambda(327)=  0.120717335304
  lambda(328)=  0.126655820007
  lambda(329)=  0.127643594480
  lambda(330)=  0.127927959471
  lambda(331)=  0.133745382175
  lambda(332)=  0.133778235134
  lambda(333)=  0.136711973832
  lambda(334)=  0.138419143662
  lambda(335)=  0.142890713342
  lambda(336)=  0.142895692263
  lambda(337)=  0.143530735102
  lambda(338)=  0.156188377432
  lambda(339)=  0.156191005426
  lambda(340)=  0.160918231171
  lambda(341)=  0.163530840962
  lambda(342)=  0.165140329577
  lambda(343)=  0.165146680317
  lambda(344)=  0.166354226316
  lambda(345)=  0.171946022477
  lambda(346)=  0.172595426131
  lambda(347)=  0.172875626907
  lambda(348)=  0.172913972099
  lambda(349)=  0.174706576046
  lambda(350)=  0.180391373542
  lambda(351)=  0.180587524455
  lambda(352)=  0.192696158788
  lambda(353)=  0.194221794419
  lambda(354)=  0.195643379914
  lambda(355)=  0.202490591828
  lambda(356)=  0.202671775447
  lambda(357)=  0.203367656751
  lambda(358)=  0.236626441167
  lambda(359)=  0.298066904913
  lambda(360)=  0.437878656663
  lambda(361)=  0.437886664080
  lambda(362)=  0.992653951532
  lambda(363)=  1.000000000000
  lambda(364)=  1.000000000000
  lambda(365)=  1.000000000000
  lambda(366)=  1.000000000000
  lambda(367)=  1.000000000000
  lambda(368)=  1.000000000000
  lambda(369)=  1.000000000000
  lambda(370)=  1.000000000000
  lambda(371)=  1.000000000000
  lambda(372)=  1.000000000000
  lambda(373)=  1.000000000000
  lambda(374)=  1.000000000000
  lambda(375)=  1.000000000000
  lambda(376)=  1.000000000000
  lambda(377)=  1.000000000000
  lambda(378)=  1.000000000000
  lambda(379)=  1.000000000000
  lambda(380)=  1.000000000000
  lambda(381)=  1.000000000000
  lambda(382)=  1.000000000000

 K-point   2 ndimwin: 382 we want the 20 leading eigenvector(s) of QPQ
  lambda(  1)= -0.000000000000
  lambda(  2)= -0.000000000000
  lambda(  3)= -0.000000000000
  lambda(  4)= -0.000000000000
  lambda(  5)= -0.000000000000
  lambda(  6)= -0.000000000000
  lambda(  7)= -0.000000000000
  lambda(  8)= -0.000000000000
  lambda(  9)= -0.000000000000
  lambda( 10)= -0.000000000000
  lambda( 11)= -0.000000000000
  lambda( 12)= -0.000000000000
  lambda( 13)= -0.000000000000
  lambda( 14)= -0.000000000000
  lambda( 15)= -0.000000000000
  lambda( 16)= -0.000000000000
  lambda( 17)= -0.000000000000
  lambda( 18)= -0.000000000000
  lambda( 19)= -0.000000000000
  lambda( 20)= -0.000000000000
  lambda( 21)= -0.000000000000
  lambda( 22)= -0.000000000000
  lambda( 23)= -0.000000000000
  lambda( 24)= -0.000000000000
  lambda( 25)= -0.000000000000
  lambda( 26)= -0.000000000000
  lambda( 27)= -0.000000000000
  lambda( 28)= -0.000000000000
  lambda( 29)= -0.000000000000
  lambda( 30)= -0.000000000000
  lambda( 31)= -0.000000000000
  lambda( 32)= -0.000000000000
  lambda( 33)= -0.000000000000
  lambda( 34)= -0.000000000000
  lambda( 35)= -0.000000000000
  lambda( 36)= -0.000000000000
  lambda( 37)= -0.000000000000
  lambda( 38)= -0.000000000000
  lambda( 39)= -0.000000000000
  lambda( 40)= -0.000000000000
  lambda( 41)= -0.000000000000
  lambda( 42)= -0.000000000000
  lambda( 43)= -0.000000000000
  lambda( 44)= -0.000000000000
  lambda( 45)= -0.000000000000
  lambda( 46)= -0.000000000000
  lambda( 47)= -0.000000000000
  lambda( 48)= -0.000000000000
  lambda( 49)= -0.000000000000
  lambda( 50)= -0.000000000000
  lambda( 51)= -0.000000000000
  lambda( 52)= -0.000000000000
  lambda( 53)= -0.000000000000
  lambda( 54)= -0.000000000000
  lambda( 55)= -0.000000000000
  lambda( 56)= -0.000000000000
  lambda( 57)= -0.000000000000
  lambda( 58)= -0.000000000000
  lambda( 59)= -0.000000000000
  lambda( 60)= -0.000000000000
  lambda( 61)= -0.000000000000
  lambda( 62)= -0.000000000000
  lambda( 63)= -0.000000000000
  lambda( 64)= -0.000000000000
  lambda( 65)= -0.000000000000
  lambda( 66)= -0.000000000000
  lambda( 67)= -0.000000000000
  lambda( 68)= -0.000000000000
  lambda( 69)= -0.000000000000
  lambda( 70)= -0.000000000000
  lambda( 71)= -0.000000000000
  lambda( 72)= -0.000000000000
  lambda( 73)= -0.000000000000
  lambda( 74)= -0.000000000000
  lambda( 75)= -0.000000000000
  lambda( 76)= -0.000000000000
  lambda( 77)= -0.000000000000
  lambda( 78)= -0.000000000000
  lambda( 79)= -0.000000000000
  lambda( 80)= -0.000000000000
  lambda( 81)= -0.000000000000
  lambda( 82)= -0.000000000000
  lambda( 83)= -0.000000000000
  lambda( 84)= -0.000000000000
  lambda( 85)= -0.000000000000
  lambda( 86)= -0.000000000000
  lambda( 87)= -0.000000000000
  lambda( 88)= -0.000000000000
  lambda( 89)= -0.000000000000
  lambda( 90)= -0.000000000000
  lambda( 91)= -0.000000000000
  lambda( 92)= -0.000000000000
  lambda( 93)= -0.000000000000
  lambda( 94)= -0.000000000000
  lambda( 95)= -0.000000000000
  lambda( 96)= -0.000000000000
  lambda( 97)= -0.000000000000
  lambda( 98)= -0.000000000000
  lambda( 99)= -0.000000000000
  lambda(100)= -0.000000000000
  lambda(101)=  0.000000000000
  lambda(102)=  0.000000000000
  lambda(103)=  0.000000000000
  lambda(104)=  0.000000000000
  lambda(105)=  0.000000000000
  lambda(106)=  0.000000000000
  lambda(107)=  0.000000000000
  lambda(108)=  0.000000000000
  lambda(109)=  0.000000000000
  lambda(110)=  0.000000000000
  lambda(111)=  0.000000000000
  lambda(112)=  0.000000000000
  lambda(113)=  0.000000000000
  lambda(114)=  0.000000000000
  lambda(115)=  0.000000000000
  lambda(116)=  0.000000000000
  lambda(117)=  0.000000000000
  lambda(118)=  0.000000000000
  lambda(119)=  0.000000000000
  lambda(120)=  0.000000000000
  lambda(121)=  0.000000000000
  lambda(122)=  0.000000000000
  lambda(123)=  0.000000000000
  lambda(124)=  0.000000000000
  lambda(125)=  0.000000000000
  lambda(126)=  0.000000000000
  lambda(127)=  0.000000000000
  lambda(128)=  0.000000000000
  lambda(129)=  0.000000000000
  lambda(130)=  0.000000000000
  lambda(131)=  0.000000000000
  lambda(132)=  0.000000000000
  lambda(133)=  0.000000000000
  lambda(134)=  0.000000000000
  lambda(135)=  0.000000000000
  lambda(136)=  0.000000000000
  lambda(137)=  0.000000000000
  lambda(138)=  0.000000000000
  lambda(139)=  0.000000000000
  lambda(140)=  0.000000000000
  lambda(141)=  0.000000000000
  lambda(142)=  0.000000000000
  lambda(143)=  0.000000000000
  lambda(144)=  0.000000000000
  lambda(145)=  0.000000000000
  lambda(146)=  0.000000000000
  lambda(147)=  0.000000000000
  lambda(148)=  0.000000000000
  lambda(149)=  0.000000000000
  lambda(150)=  0.000000000000
  lambda(151)=  0.000000000000
  lambda(152)=  0.000000000000
  lambda(153)=  0.000000000000
  lambda(154)=  0.000000000000
  lambda(155)=  0.000000000000
  lambda(156)=  0.000000000000
  lambda(157)=  0.000000000000
  lambda(158)=  0.000000000000
  lambda(159)=  0.000000000000
  lambda(160)=  0.000000000000
  lambda(161)=  0.000000000000
  lambda(162)=  0.000000000000
  lambda(163)=  0.000000000000
  lambda(164)=  0.000000000000
  lambda(165)=  0.000000000000
  lambda(166)=  0.000000000000
  lambda(167)=  0.000000000000
  lambda(168)=  0.000000000000
  lambda(169)=  0.000000000000
  lambda(170)=  0.000000000000
  lambda(171)=  0.000000000000
  lambda(172)=  0.000000000000
  lambda(173)=  0.000000000000
  lambda(174)=  0.000000000000
  lambda(175)=  0.000000000000
  lambda(176)=  0.000000000000
  lambda(177)=  0.000000000000
  lambda(178)=  0.000000000000
  lambda(179)=  0.000000000000
  lambda(180)=  0.000000000000
  lambda(181)=  0.000000000000
  lambda(182)=  0.000000000000
  lambda(183)=  0.000000000000
  lambda(184)=  0.000000000000
  lambda(185)=  0.000000000000
  lambda(186)=  0.000000000000
  lambda(187)=  0.000000000000
  lambda(188)=  0.000000000000
  lambda(189)=  0.000000000000
  lambda(190)=  0.000000000000
  lambda(191)=  0.000000000000
  lambda(192)=  0.000000000000
  lambda(193)=  0.000000000000
  lambda(194)=  0.000000000000
  lambda(195)=  0.000000000000
  lambda(196)=  0.000000000000
  lambda(197)=  0.000000000000
  lambda(198)=  0.000000000000
  lambda(199)=  0.000000000000
  lambda(200)=  0.000000000000
  lambda(201)=  0.000000000000
  lambda(202)=  0.000000000425
  lambda(203)=  0.000000000863
  lambda(204)=  0.000000001839
  lambda(205)=  0.000000010724
  lambda(206)=  0.000000026716
  lambda(207)=  0.000000048964
  lambda(208)=  0.000000081945
  lambda(209)=  0.000000338545
  lambda(210)=  0.000001040025
  lambda(211)=  0.000002100337
  lambda(212)=  0.000003278992
  lambda(213)=  0.000004634205
  lambda(214)=  0.000010896187
  lambda(215)=  0.000013821362
  lambda(216)=  0.000017307832
  lambda(217)=  0.000018215024
  lambda(218)=  0.000031079291
  lambda(219)=  0.000034704200
  lambda(220)=  0.000038500600
  lambda(221)=  0.000059058923
  lambda(222)=  0.000060368380
  lambda(223)=  0.000069684403
  lambda(224)=  0.000112370007
  lambda(225)=  0.000126709937
  lambda(226)=  0.000153628367
  lambda(227)=  0.000167687123
  lambda(228)=  0.000177714096
  lambda(229)=  0.000223470750
  lambda(230)=  0.000258110133
  lambda(231)=  0.000301727155
  lambda(232)=  0.000339634703
  lambda(233)=  0.000357019475
  lambda(234)=  0.000369280911
  lambda(235)=  0.000479591704
  lambda(236)=  0.000495392090
  lambda(237)=  0.000642659359
  lambda(238)=  0.000750951234
  lambda(239)=  0.000975486178
  lambda(240)=  0.001010239736
  lambda(241)=  0.001130926321
  lambda(242)=  0.001133945768
  lambda(243)=  0.001363776177
  lambda(244)=  0.001667165468
  lambda(245)=  0.001686356309
  lambda(246)=  0.001750330249
  lambda(247)=  0.001960321508
  lambda(248)=  0.002587262491
  lambda(249)=  0.002664612533
  lambda(250)=  0.002769063298
  lambda(251)=  0.002924917768
  lambda(252)=  0.003300320282
  lambda(253)=  0.003608464649
  lambda(254)=  0.004030291985
  lambda(255)=  0.004523261735
  lambda(256)=  0.004914509117
  lambda(257)=  0.005663293321
  lambda(258)=  0.006033929559
  lambda(259)=  0.006775857833
  lambda(260)=  0.006989897173
  lambda(261)=  0.007661856734
  lambda(262)=  0.008036435117
  lambda(263)=  0.008968242960
  lambda(264)=  0.009588423965
  lambda(265)=  0.009692634554
  lambda(266)=  0.010314914598
  lambda(267)=  0.010712191392
  lambda(268)=  0.012542710431
  lambda(269)=  0.012839595558
  lambda(270)=  0.013238691367
  lambda(271)=  0.013480494167
  lambda(272)=  0.013601478099
  lambda(273)=  0.014641160140
  lambda(274)=  0.014660733671
  lambda(275)=  0.015773173995
  lambda(276)=  0.016486298441
  lambda(277)=  0.016699486585
  lambda(278)=  0.017087598470
  lambda(279)=  0.017228662874
  lambda(280)=  0.018236721398
  lambda(281)=  0.018276771145
  lambda(282)=  0.020799434157
  lambda(283)=  0.022425505567
  lambda(284)=  0.025420670694
  lambda(285)=  0.025863758148
  lambda(286)=  0.026512872603
  lambda(287)=  0.027698486749
  lambda(288)=  0.028763180706
  lambda(289)=  0.030934499387
  lambda(290)=  0.031456520681
  lambda(291)=  0.031518706284
  lambda(292)=  0.037344281803
  lambda(293)=  0.037904641043
  lambda(294)=  0.041004593837
  lambda(295)=  0.042753353873
  lambda(296)=  0.045123047380
  lambda(297)=  0.047314956201
  lambda(298)=  0.047421465216
  lambda(299)=  0.049494845692
  lambda(300)=  0.051162847247
  lambda(301)=  0.052456458260
  lambda(302)=  0.053833539311
  lambda(303)=  0.056086627615
  lambda(304)=  0.056137749093
  lambda(305)=  0.057433447682
  lambda(306)=  0.058336793432
  lambda(307)=  0.060938363911
  lambda(308)=  0.061455660795
  lambda(309)=  0.065226693483
  lambda(310)=  0.065475676814
  lambda(311)=  0.066117381691
  lambda(312)=  0.068423763702
  lambda(313)=  0.069407853328
  lambda(314)=  0.072528683674
  lambda(315)=  0.073600113767
  lambda(316)=  0.073863664629
  lambda(317)=  0.075100377519
  lambda(318)=  0.075309581191
  lambda(319)=  0.077380743774
  lambda(320)=  0.081430888416
  lambda(321)=  0.094744621739
  lambda(322)=  0.104233593379
  lambda(323)=  0.108136537000
  lambda(324)=  0.111676180696
  lambda(325)=  0.112314066021
  lambda(326)=  0.115520661868
  lambda(327)=  0.115624488286
  lambda(328)=  0.118480623246
  lambda(329)=  0.122274426849
  lambda(330)=  0.124269263841
  lambda(331)=  0.127287141227
  lambda(332)=  0.128621999755
  lambda(333)=  0.134628173823
  lambda(334)=  0.140081280169
  lambda(335)=  0.140558648722
  lambda(336)=  0.149472108348
  lambda(337)=  0.149512471770
  lambda(338)=  0.153436174746
  lambda(339)=  0.156082979636
  lambda(340)=  0.156342618620
  lambda(341)=  0.160354170820
  lambda(342)=  0.161061429359
  lambda(343)=  0.167369067082
  lambda(344)=  0.170811541693
  lambda(345)=  0.171108104566
  lambda(346)=  0.174564272483
  lambda(347)=  0.174871854037
  lambda(348)=  0.177427371845
  lambda(349)=  0.178656523505
  lambda(350)=  0.181648972396
  lambda(351)=  0.182099161256
  lambda(352)=  0.182722293025
  lambda(353)=  0.190623321199
  lambda(354)=  0.191408839203
  lambda(355)=  0.197171349684
  lambda(356)=  0.197762439492
  lambda(357)=  0.219444588662
  lambda(358)=  0.224271349487
  lambda(359)=  0.284577783788
  lambda(360)=  0.448739135004
  lambda(361)=  0.486085120440
  lambda(362)=  0.991510839048
  lambda(363)=  1.000000000000
  lambda(364)=  1.000000000000
  lambda(365)=  1.000000000000
  lambda(366)=  1.000000000000
  lambda(367)=  1.000000000000
  lambda(368)=  1.000000000000
  lambda(369)=  1.000000000000
  lambda(370)=  1.000000000000
  lambda(371)=  1.000000000000
  lambda(372)=  1.000000000000
  lambda(373)=  1.000000000000
  lambda(374)=  1.000000000000
  lambda(375)=  1.000000000000
  lambda(376)=  1.000000000000
  lambda(377)=  1.000000000000
  lambda(378)=  1.000000000000
  lambda(379)=  1.000000000000
  lambda(380)=  1.000000000000
  lambda(381)=  1.000000000000
  lambda(382)=  1.000000000000

 K-point   3 ndimwin: 382 we want the 17 leading eigenvector(s) of QPQ
  lambda(  1)= -0.000000000000
  lambda(  2)= -0.000000000000
  lambda(  3)= -0.000000000000
  lambda(  4)= -0.000000000000
  lambda(  5)= -0.000000000000
  lambda(  6)= -0.000000000000
  lambda(  7)= -0.000000000000
  lambda(  8)= -0.000000000000
  lambda(  9)= -0.000000000000
  lambda( 10)= -0.000000000000
  lambda( 11)= -0.000000000000
  lambda( 12)= -0.000000000000
  lambda( 13)= -0.000000000000
  lambda( 14)= -0.000000000000
  lambda( 15)= -0.000000000000
  lambda( 16)= -0.000000000000
  lambda( 17)= -0.000000000000
  lambda( 18)= -0.000000000000
  lambda( 19)= -0.000000000000
  lambda( 20)= -0.000000000000
  lambda( 21)= -0.000000000000
  lambda( 22)= -0.000000000000
  lambda( 23)= -0.000000000000
  lambda( 24)= -0.000000000000
  lambda( 25)= -0.000000000000
  lambda( 26)= -0.000000000000
  lambda( 27)= -0.000000000000
  lambda( 28)= -0.000000000000
  lambda( 29)= -0.000000000000
  lambda( 30)= -0.000000000000
  lambda( 31)= -0.000000000000
  lambda( 32)= -0.000000000000
  lambda( 33)= -0.000000000000
  lambda( 34)= -0.000000000000
  lambda( 35)= -0.000000000000
  lambda( 36)= -0.000000000000
  lambda( 37)= -0.000000000000
  lambda( 38)= -0.000000000000
  lambda( 39)= -0.000000000000
  lambda( 40)= -0.000000000000
  lambda( 41)= -0.000000000000
  lambda( 42)= -0.000000000000
  lambda( 43)= -0.000000000000
  lambda( 44)= -0.000000000000
  lambda( 45)= -0.000000000000
  lambda( 46)= -0.000000000000
  lambda( 47)= -0.000000000000
  lambda( 48)= -0.000000000000
  lambda( 49)= -0.000000000000
  lambda( 50)= -0.000000000000
  lambda( 51)= -0.000000000000
  lambda( 52)= -0.000000000000
  lambda( 53)= -0.000000000000
  lambda( 54)= -0.000000000000
  lambda( 55)= -0.000000000000
  lambda( 56)= -0.000000000000
  lambda( 57)= -0.000000000000
  lambda( 58)= -0.000000000000
  lambda( 59)= -0.000000000000
  lambda( 60)= -0.000000000000
  lambda( 61)= -0.000000000000
  lambda( 62)= -0.000000000000
  lambda( 63)= -0.000000000000
  lambda( 64)= -0.000000000000
  lambda( 65)= -0.000000000000
  lambda( 66)= -0.000000000000
  lambda( 67)= -0.000000000000
  lambda( 68)= -0.000000000000
  lambda( 69)= -0.000000000000
  lambda( 70)= -0.000000000000
  lambda( 71)= -0.000000000000
  lambda( 72)= -0.000000000000
  lambda( 73)= -0.000000000000
  lambda( 74)= -0.000000000000
  lambda( 75)= -0.000000000000
  lambda( 76)= -0.000000000000
  lambda( 77)= -0.000000000000
  lambda( 78)= -0.000000000000
  lambda( 79)= -0.000000000000
  lambda( 80)= -0.000000000000
  lambda( 81)= -0.000000000000
  lambda( 82)= -0.000000000000
  lambda( 83)= -0.000000000000
  lambda( 84)= -0.000000000000
  lambda( 85)= -0.000000000000
  lambda( 86)= -0.000000000000
  lambda( 87)= -0.000000000000
  lambda( 88)= -0.000000000000
  lambda( 89)= -0.000000000000
  lambda( 90)= -0.000000000000
  lambda( 91)= -0.000000000000
  lambda( 92)= -0.000000000000
  lambda( 93)= -0.000000000000
  lambda( 94)= -0.000000000000
  lambda( 95)= -0.000000000000
  lambda( 96)= -0.000000000000
  lambda( 97)= -0.000000000000
  lambda( 98)= -0.000000000000
  lambda( 99)= -0.000000000000
  lambda(100)= -0.000000000000
  lambda(101)=  0.000000000000
  lambda(102)=  0.000000000000
  lambda(103)=  0.000000000000
  lambda(104)=  0.000000000000
  lambda(105)=  0.000000000000
  lambda(106)=  0.000000000000
  lambda(107)=  0.000000000000
  lambda(108)=  0.000000000000
  lambda(109)=  0.000000000000
  lambda(110)=  0.000000000000
  lambda(111)=  0.000000000000
  lambda(112)=  0.000000000000
  lambda(113)=  0.000000000000
  lambda(114)=  0.000000000000
  lambda(115)=  0.000000000000
  lambda(116)=  0.000000000000
  lambda(117)=  0.000000000000
  lambda(118)=  0.000000000000
  lambda(119)=  0.000000000000
  lambda(120)=  0.000000000000
  lambda(121)=  0.000000000000
  lambda(122)=  0.000000000000
  lambda(123)=  0.000000000000
  lambda(124)=  0.000000000000
  lambda(125)=  0.000000000000
  lambda(126)=  0.000000000000
  lambda(127)=  0.000000000000
  lambda(128)=  0.000000000000
  lambda(129)=  0.000000000000
  lambda(130)=  0.000000000000
  lambda(131)=  0.000000000000
  lambda(132)=  0.000000000000
  lambda(133)=  0.000000000000
  lambda(134)=  0.000000000000
  lambda(135)=  0.000000000000
  lambda(136)=  0.000000000000
  lambda(137)=  0.000000000000
  lambda(138)=  0.000000000000
  lambda(139)=  0.000000000000
  lambda(140)=  0.000000000000
  lambda(141)=  0.000000000000
  lambda(142)=  0.000000000000
  lambda(143)=  0.000000000000
  lambda(144)=  0.000000000000
  lambda(145)=  0.000000000000
  lambda(146)=  0.000000000000
  lambda(147)=  0.000000000000
  lambda(148)=  0.000000000000
  lambda(149)=  0.000000000000
  lambda(150)=  0.000000000000
  lambda(151)=  0.000000000000
  lambda(152)=  0.000000000000
  lambda(153)=  0.000000000000
  lambda(154)=  0.000000000000
  lambda(155)=  0.000000000000
  lambda(156)=  0.000000000000
  lambda(157)=  0.000000000000
  lambda(158)=  0.000000000000
  lambda(159)=  0.000000000000
  lambda(160)=  0.000000000000
  lambda(161)=  0.000000000000
  lambda(162)=  0.000000000000
  lambda(163)=  0.000000000000
  lambda(164)=  0.000000000000
  lambda(165)=  0.000000000000
  lambda(166)=  0.000000000000
  lambda(167)=  0.000000000000
  lambda(168)=  0.000000000000
  lambda(169)=  0.000000000000
  lambda(170)=  0.000000000000
  lambda(171)=  0.000000000000
  lambda(172)=  0.000000000000
  lambda(173)=  0.000000000000
  lambda(174)=  0.000000000000
  lambda(175)=  0.000000000000
  lambda(176)=  0.000000000000
  lambda(177)=  0.000000000000
  lambda(178)=  0.000000000000
  lambda(179)=  0.000000000000
  lambda(180)=  0.000000000000
  lambda(181)=  0.000000000000
  lambda(182)=  0.000000000000
  lambda(183)=  0.000000000000
  lambda(184)=  0.000000000000
  lambda(185)=  0.000000000000
  lambda(186)=  0.000000000000
  lambda(187)=  0.000000000000
  lambda(188)=  0.000000000000
  lambda(189)=  0.000000000000
  lambda(190)=  0.000000000000
  lambda(191)=  0.000000000000
  lambda(192)=  0.000000000000
  lambda(193)=  0.000000000000
  lambda(194)=  0.000000000000
  lambda(195)=  0.000000000000
  lambda(196)=  0.000000000000
  lambda(197)=  0.000000000000
  lambda(198)=  0.000000000000
  lambda(199)=  0.000000000000
  lambda(200)=  0.000000000000
  lambda(201)=  0.000000000000
  lambda(202)=  0.000000000201
  lambda(203)=  0.000000000408
  lambda(204)=  0.000000000702
  lambda(205)=  0.000000007215
  lambda(206)=  0.000000016539
  lambda(207)=  0.000000032810
  lambda(208)=  0.000000114821
  lambda(209)=  0.000000150388
  lambda(210)=  0.000000229097
  lambda(211)=  0.000000791173
  lambda(212)=  0.000003720986
  lambda(213)=  0.000007459189
  lambda(214)=  0.000010842048
  lambda(215)=  0.000016187375
  lambda(216)=  0.000022489029
  lambda(217)=  0.000030828283
  lambda(218)=  0.000032464413
  lambda(219)=  0.000040220360
  lambda(220)=  0.000047530908
  lambda(221)=  0.000048553861
  lambda(222)=  0.000053881585
  lambda(223)=  0.000061911360
  lambda(224)=  0.000082576538
  lambda(225)=  0.000088414355
  lambda(226)=  0.000138477555
  lambda(227)=  0.000158801983
  lambda(228)=  0.000169329267
  lambda(229)=  0.000173532434
  lambda(230)=  0.000302902633
  lambda(231)=  0.000398943220
  lambda(232)=  0.000418687182
  lambda(233)=  0.000497877763
  lambda(234)=  0.000505904212
  lambda(235)=  0.000561509105
  lambda(236)=  0.000745959964
  lambda(237)=  0.000921941594
  lambda(238)=  0.001069609484
  lambda(239)=  0.001081099371
  lambda(240)=  0.001384993539
  lambda(241)=  0.001389471612
  lambda(242)=  0.001483653290
  lambda(243)=  0.001787160052
  lambda(244)=  0.001968120517
  lambda(245)=  0.002073309053
  lambda(246)=  0.002256210643
  lambda(247)=  0.002355062987
  lambda(248)=  0.002670319508
  lambda(249)=  0.002798225072
  lambda(250)=  0.003014517809
  lambda(251)=  0.003456897157
  lambda(252)=  0.003622253391
  lambda(253)=  0.004152975888
  lambda(254)=  0.004570901570
  lambda(255)=  0.005038660839
  lambda(256)=  0.005650703552
  lambda(257)=  0.005884247426
  lambda(258)=  0.007447882281
  lambda(259)=  0.007782134864
  lambda(260)=  0.008564477965
  lambda(261)=  0.009093095512
  lambda(262)=  0.009240525065
  lambda(263)=  0.009359042376
  lambda(264)=  0.009912207386
  lambda(265)=  0.010009828573
  lambda(266)=  0.010387020571
  lambda(267)=  0.010810516530
  lambda(268)=  0.010961432740
  lambda(269)=  0.011223732664
  lambda(270)=  0.011262723747
  lambda(271)=  0.011674888428
  lambda(272)=  0.012340238132
  lambda(273)=  0.012542275952
  lambda(274)=  0.014294941210
  lambda(275)=  0.014623918123
  lambda(276)=  0.016134248610
  lambda(277)=  0.016194107196
  lambda(278)=  0.017901305121
  lambda(279)=  0.017908634057
  lambda(280)=  0.019133961059
  lambda(281)=  0.020004396420
  lambda(282)=  0.021465764037
  lambda(283)=  0.022196087457
  lambda(284)=  0.023050681014
  lambda(285)=  0.026364203667
  lambda(286)=  0.028198918406
  lambda(287)=  0.028330221075
  lambda(288)=  0.029407103346
  lambda(289)=  0.031082098834
  lambda(290)=  0.031770983429
  lambda(291)=  0.032062417126
  lambda(292)=  0.033869795007
  lambda(293)=  0.036121363698
  lambda(294)=  0.040182878411
  lambda(295)=  0.041023031736
  lambda(296)=  0.042574127882
  lambda(297)=  0.043611395654
  lambda(298)=  0.047232378569
  lambda(299)=  0.048618204941
  lambda(300)=  0.049086409226
  lambda(301)=  0.050352710293
  lambda(302)=  0.051409752453
  lambda(303)=  0.053072533349
  lambda(304)=  0.055173978056
  lambda(305)=  0.056423312215
  lambda(306)=  0.057670877654
  lambda(307)=  0.058088687764
  lambda(308)=  0.059107445605
  lambda(309)=  0.059359521354
  lambda(310)=  0.060267905900
  lambda(311)=  0.060549296948
  lambda(312)=  0.062322974151
  lambda(313)=  0.062748033070
  lambda(314)=  0.064929242810
  lambda(315)=  0.066585826171
  lambda(316)=  0.067407968710
  lambda(317)=  0.073908772392
  lambda(318)=  0.075592972450
  lambda(319)=  0.079237818890
  lambda(320)=  0.092356923850
  lambda(321)=  0.094767323158
  lambda(322)=  0.096515199769
  lambda(323)=  0.098280949188
  lambda(324)=  0.099041571919
  lambda(325)=  0.099104079519
  lambda(326)=  0.100725012526
  lambda(327)=  0.101829204087
  lambda(328)=  0.103022269160
  lambda(329)=  0.104298454218
  lambda(330)=  0.105499586818
[...]
  WF centre and spread   95  (  5.169067,  1.004249,  3.472428 )     2.26559254
  WF centre and spread   96  (  5.169061,  0.987827,  3.343622 )     2.23435928
  WF centre and spread   97  (  5.169065,  1.019255,  3.339297 )     2.06638625
  WF centre and spread   98  (  8.617332,  0.994719, -0.056431 )     2.36691132
  WF centre and spread   99  (  8.613433,  0.981494,  0.075742 )     2.10470945
  WF centre and spread  100  (  8.615503,  1.008063,  0.075129 )     2.11965549
  WF centre and spread  101  (  8.616710,  0.994177,  3.430467 )     2.35122797
  WF centre and spread  102  (  8.616939,  0.978016,  3.289543 )     2.12498628
  WF centre and spread  103  (  8.615739,  1.013901,  3.290087 )     2.12446720
  WF centre and spread  104  ( 12.061149,  0.997256, -0.112165 )     2.28727181
  WF centre and spread  105  ( 12.061145,  0.998194,  0.004889 )     2.08268593
  WF centre and spread  106  ( 12.061149,  1.030800,  0.005639 )     2.12925374
  WF centre and spread  107  ( 12.061157,  0.986338,  3.491721 )     2.30801736
  WF centre and spread  108  ( 12.061153,  0.994954,  3.358304 )     2.10049412
  WF centre and spread  109  ( 12.061150,  1.022840,  3.358282 )     2.17678672
  WF centre and spread  110  ( 10.342055,  3.974494, -0.112090 )     2.29106371
  WF centre and spread  111  ( 10.354224,  3.953822,  0.005440 )     2.11530403
  WF centre and spread  112  ( 10.354775,  3.987315,  0.005012 )     2.09365889
  WF centre and spread  113  ( 10.332199,  3.980379,  3.491754 )     2.31296531
  WF centre and spread  114  ( 10.347183,  3.954977,  3.358282 )     2.15477709
  WF centre and spread  115  ( 10.352379,  3.991438,  3.358338 )     2.11872632
  WF centre and spread  116  (  8.555697,  6.961747, -0.056842 )     2.61008538
  WF centre and spread  117  (  8.645138,  6.960237,  0.018155 )     2.11444150
  WF centre and spread  118  (  8.607908,  6.991896,  0.042497 )     2.23691187
  WF centre and spread  119  (  8.493634,  6.961593,  3.493575 )     2.64883806
  WF centre and spread  120  (  8.629973,  6.956268,  3.348790 )     2.15841275
  WF centre and spread  121  (  8.615392,  6.992587,  3.341590 )     2.13410357
  WF centre and spread  122  (  6.862608,  9.892774, -0.054989 )     2.62389814
  WF centre and spread  123  (  6.902450,  9.934408,  0.034476 )     2.18353364
  WF centre and spread  124  (  6.913611,  9.972603,  0.024294 )     2.15163587
  WF centre and spread  125  (  6.830448,  9.839319,  3.493387 )     2.65349856
  WF centre and spread  126  (  6.904332,  9.924599,  3.338469 )     2.14805021
  WF centre and spread  127  (  6.905997,  9.976889,  3.352122 )     2.13811186
  WF centre and spread  128  (  3.475500,  9.892775, -0.054991 )     2.62390170
  WF centre and spread  129  (  3.435668,  9.934408,  0.034473 )     2.18353550
  WF centre and spread  130  (  3.424510,  9.972605,  0.024293 )     2.15162958
  WF centre and spread  131  (  3.507703,  9.839325,  3.493385 )     2.65348521
  WF centre and spread  132  (  3.433800,  9.924607,  3.338466 )     2.14805304
  WF centre and spread  133  (  3.432138,  9.976883,  3.352122 )     2.13811887
  WF centre and spread  134  (  0.001760,  9.944934, -0.107554 )     2.25594028
  WF centre and spread  135  ( -0.001116,  9.933864,  0.019143 )     2.11548724
  WF centre and spread  136  ( -0.000601,  9.964195,  0.022299 )     2.19486174
  WF centre and spread  137  (  0.010062,  9.939805,  3.472389 )     2.26568287
  WF centre and spread  138  (  0.006344,  9.927935,  3.340370 )     2.10803435
  WF centre and spread  139  (  0.007554,  9.961427,  3.342555 )     2.19258840
  WF centre and spread  140  ( -3.447803,  9.944935, -0.107554 )     2.25593951
  WF centre and spread  141  ( -3.444933,  9.933860,  0.019141 )     2.11549321
  WF centre and spread  142  ( -3.445446,  9.964194,  0.022296 )     2.19485001
  WF centre and spread  143  ( -3.456101,  9.939804,  3.472389 )     2.26568480
  WF centre and spread  144  ( -3.452381,  9.927940,  3.340368 )     2.10803373
  WF centre and spread  145  ( -3.453596,  9.961427,  3.342555 )     2.19259321
  WF centre and spread  146  (  6.863970,  4.027215, -0.057073 )     2.61201901
  WF centre and spread  147  (  6.876575,  3.958503,  0.037831 )     2.22081337
  WF centre and spread  148  (  6.896716,  3.970472,  0.022878 )     2.12717187
  WF centre and spread  149  (  6.830809,  4.082463,  3.494105 )     2.65180721
  WF centre and spread  150  (  6.890256,  3.951251,  3.348195 )     2.12651231
  WF centre and spread  151  (  6.884473,  3.985075,  3.341713 )     2.16209208
  WF centre and spread  152  (  5.169064,  6.962983,  0.534596 )     3.92429667
  WF centre and spread  153  (  5.169066,  6.923216,  0.246984 )     2.32128342
  WF centre and spread  154  (  5.169069,  7.004170,  0.246805 )     2.32092045
  WF centre and spread  155  (  5.169058,  6.961048,  6.433499 )     3.49627404
  WF centre and spread  156  (  5.169064,  6.955408,  3.752660 )     3.69115604
  WF centre and spread  157  (  5.169061,  6.972680,  3.752528 )     3.69022542
  WF centre and spread  158  (  1.782419,  6.961750, -0.056844 )     2.61008019
  WF centre and spread  159  (  1.692984,  6.960231,  0.018161 )     2.11443866
  WF centre and spread  160  (  1.730214,  6.991898,  0.042498 )     2.23692984
  WF centre and spread  161  (  1.844510,  6.961595,  3.493579 )     2.64884432
  WF centre and spread  162  (  1.708155,  6.956276,  3.348796 )     2.15841136
  WF centre and spread  163  (  1.722742,  6.992584,  3.341591 )     2.13409009
  WF centre and spread  164  (  3.474147,  4.027220, -0.057073 )     2.61201030
  WF centre and spread  165  (  3.461546,  3.958509,  0.037837 )     2.22082838
  WF centre and spread  166  (  3.441403,  3.970474,  0.022883 )     2.12717689
  WF centre and spread  167  (  3.507344,  4.082457,  3.494111 )     2.65182212
  WF centre and spread  168  (  3.447882,  3.951244,  3.348202 )     2.12648725
  WF centre and spread  169  (  3.453660,  3.985078,  3.341716 )     2.16209630
  WF centre and spread  170  ( -0.003934,  3.974492, -0.112081 )     2.29107150
  WF centre and spread  171  ( -0.016104,  3.953829,  0.005439 )     2.11529960
  WF centre and spread  172  ( -0.016659,  3.987301,  0.005005 )     2.09365103
  WF centre and spread  173  (  0.005940,  3.980375,  3.491761 )     2.31294451
  WF centre and spread  174  ( -0.009050,  3.954967,  3.358279 )     2.15477660
  WF centre and spread  175  ( -0.014242,  3.991453,  3.358329 )     2.11871891
  WF centre and spread  176  ( -1.723024,  6.959571, -0.056404 )     2.36705608
  WF centre and spread  177  ( -1.723018,  6.949708,  0.074839 )     2.12671171
  WF centre and spread  178  ( -1.723020,  6.979667,  0.076069 )     2.09880399
  WF centre and spread  179  ( -1.723019,  6.960087,  3.430404 )     2.35086494
  WF centre and spread  180  ( -1.723022,  6.945760,  3.290374 )     2.12435950
  WF centre and spread  181  ( -1.723024,  6.979506,  3.289300 )     2.12708926
  Sum of centres and spreads (646.133028,918.190276,332.027220 )   407.61108472
 
         Spreads (Ang^2)       Omega I      =   374.115418593
        ================       Omega D      =     0.005368953
                               Omega OD     =    33.490297036
    Final Spread (Ang^2)       Omega Total  =   407.611084582
 ------------------------------------------------------------------------------
 Final centres (translated to home cell for writing xyz file)
  WF centre    1  (  5.169065,  6.962771,  5.550030 )
  WF centre    2  (  5.169068,  6.961406,  5.715955 )
  WF centre    3  (  5.169064,  6.967814,  5.715969 )
  WF centre    4  (  5.169064,  6.957424,  5.641525 )
  WF centre    5  (  5.169064,  6.969502,  5.641523 )
  WF centre    6  ( -0.066146, -0.013051,  1.679365 )
  WF centre    7  ( -0.043028,  0.032570,  1.688145 )
  WF centre    8  ( -0.094380, -0.108401,  1.721336 )
  WF centre    9  ( -0.054141,  0.138089,  1.686552 )
  WF centre   10  ( -0.062019, -0.139486,  1.681540 )
  WF centre   11  (  3.473319, -0.020813,  1.682839 )
  WF centre   12  (  3.475052,  0.016107,  1.684814 )
  WF centre   13  (  3.462689, -0.042592,  1.688498 )
  WF centre   14  (  3.471717,  0.128234,  1.680841 )
  WF centre   15  (  3.472561, -0.151840,  1.681231 )
  WF centre   16  (  6.864809, -0.020813,  1.682839 )
  WF centre   17  (  6.863076,  0.016107,  1.684813 )
  WF centre   18  (  6.875438, -0.042590,  1.688500 )
  WF centre   19  (  6.866409,  0.128234,  1.680841 )
  WF centre   20  (  6.865568, -0.151841,  1.681231 )
  WF centre   21  ( 10.404275, -0.013056,  1.679367 )
  WF centre   22  ( 10.381163,  0.032571,  1.688170 )
  WF centre   23  ( 10.432503, -0.108380,  1.721351 )
  WF centre   24  ( 10.392265,  0.138085,  1.686550 )
  WF centre   25  ( 10.400150, -0.139491,  1.681541 )
  WF centre   26  (  8.641785,  3.040479,  1.679482 )
  WF centre   27  (  8.580978,  3.124923,  1.722592 )
  WF centre   28  (  8.652668,  3.000206,  1.686985 )
  WF centre   29  (  8.633378,  3.180532,  1.683207 )
  WF centre   30  (  8.647415,  2.899804,  1.684742 )
  WF centre   31  (  6.936300,  5.943452,  1.788097 )
  WF centre   32  (  6.621748,  6.124822,  2.149413 )
  WF centre   33  (  6.948045,  5.936922,  1.769538 )
  WF centre   34  (  7.011751,  6.045244,  1.661412 )
  WF centre   35  (  6.986968,  5.768104,  1.680047 )
  WF centre   36  (  5.169064,  9.003937,  1.786357 )
  WF centre   37  (  5.169063,  9.027738,  1.757901 )
  WF centre   38  (  5.169070,  8.640166,  2.148671 )
  WF centre   39  (  5.169073,  9.210301,  1.691763 )
  WF centre   40  (  5.169062,  8.935888,  1.663028 )
  WF centre   41  (  1.732282,  8.943646,  1.686223 )
  WF centre   42  (  1.716341,  8.984410,  1.681461 )
  WF centre   43  (  1.720184,  8.927106,  1.691391 )
  WF centre   44  (  1.709522,  9.102342,  1.672911 )
  WF centre   45  (  1.719789,  8.818909,  1.671875 )
  WF centre   46  ( -1.723022,  8.979658,  1.682799 )
  WF centre   47  ( -1.723022,  8.998545,  1.690799 )
  WF centre   48  ( -1.723022,  8.960244,  1.683232 )
  WF centre   49  ( -1.723025,  9.126754,  1.681100 )
  WF centre   50  ( -1.723019,  8.846266,  1.680289 )
  WF centre   51  ( -5.178325,  8.943645,  1.686226 )
  WF centre   52  ( -5.162383,  8.984410,  1.681464 )
  WF centre   53  ( -5.166226,  8.927109,  1.691393 )
  WF centre   54  ( -5.155563,  9.102341,  1.672911 )
  WF centre   55  ( -5.165835,  8.818909,  1.671875 )
  WF centre   56  (  5.169065,  2.991597,  1.686950 )
  WF centre   57  (  5.169062,  3.010211,  1.696466 )
  WF centre   58  (  5.169064,  2.947396,  1.676780 )
  WF centre   59  (  5.169064,  3.121307,  1.671028 )
  WF centre   60  (  5.169064,  2.833110,  1.672684 )
  WF centre   61  (  3.401829,  5.943452,  1.788094 )
  WF centre   62  (  3.716363,  6.124805,  2.149398 )
  WF centre   63  (  3.390084,  5.936924,  1.769520 )
  WF centre   64  (  3.326384,  6.045240,  1.661413 )
  WF centre   65  (  3.351158,  5.768103,  1.680043 )
  WF centre   66  (  0.041842,  5.911701,  1.678940 )
  WF centre   67  (  0.073095,  5.945937,  1.705675 )
  WF centre   68  (  0.059064,  5.909288,  1.707068 )
  WF centre   69  (  0.026389,  6.059017,  1.680809 )
  WF centre   70  (  0.038126,  5.787397,  1.684127 )
  WF centre   71  (  1.696342,  3.040479,  1.679481 )
  WF centre   72  (  1.757170,  3.124923,  1.722601 )
  WF centre   73  (  1.685458,  3.000209,  1.686994 )
  WF centre   74  (  1.704746,  3.180530,  1.683208 )
  WF centre   75  (  1.690714,  2.899808,  1.684744 )
  WF centre   76  ( -1.723022,  2.979556,  1.679367 )
  WF centre   77  ( -1.723023,  3.007014,  1.685180 )
  WF centre   78  ( -1.723023,  2.961617,  1.685165 )
  WF centre   79  ( -1.723022,  3.127030,  1.682757 )
  WF centre   80  ( -1.723022,  2.847975,  1.682747 )
  WF centre   81  ( -3.487882,  5.911701,  1.678939 )
  WF centre   82  ( -3.519140,  5.945934,  1.705632 )
  WF centre   83  ( -3.505107,  5.909287,  1.707049 )
  WF centre   84  ( -3.472420,  6.059016,  1.680810 )
  WF centre   85  ( -3.484176,  5.787398,  1.684128 )
  WF centre   86  (  1.720785,  0.994723, -0.056421 )
  WF centre   87  (  1.724701,  0.981493,  0.075743 )
  WF centre   88  (  1.722628,  1.008064,  0.075129 )
  WF centre   89  (  1.721428,  0.994173,  3.430477 )
  WF centre   90  (  1.721184,  0.978012,  3.289543 )
  WF centre   91  (  1.722389,  1.013903,  3.290086 )
  WF centre   92  (  5.169063,  0.994786, -0.107571 )
  WF centre   93  (  5.169063,  0.979686,  0.023892 )
  WF centre   94  (  5.169064,  1.009229,  0.017546 )
  WF centre   95  (  5.169067,  1.004249,  3.472428 )
  WF centre   96  (  5.169061,  0.987827,  3.343622 )
  WF centre   97  (  5.169065,  1.019255,  3.339297 )
  WF centre   98  (  8.617332,  0.994719, -0.056431 )
  WF centre   99  (  8.613433,  0.981494,  0.075742 )
  WF centre  100  (  8.615503,  1.008063,  0.075129 )
  WF centre  101  (  8.616710,  0.994177,  3.430467 )
  WF centre  102  (  8.616939,  0.978016,  3.289543 )
  WF centre  103  (  8.615739,  1.013901,  3.290087 )
  WF centre  104  ( 12.061149,  0.997256, -0.112165 )
  WF centre  105  ( 12.061145,  0.998194,  0.004889 )
  WF centre  106  ( 12.061149,  1.030800,  0.005639 )
  WF centre  107  ( 12.061157,  0.986338,  3.491721 )
  WF centre  108  ( 12.061153,  0.994954,  3.358304 )
  WF centre  109  ( 12.061150,  1.022840,  3.358282 )
  WF centre  110  ( 10.342055,  3.974494, -0.112090 )
  WF centre  111  ( 10.354224,  3.953822,  0.005440 )
  WF centre  112  ( 10.354775,  3.987315,  0.005012 )
  WF centre  113  ( 10.332199,  3.980379,  3.491754 )
  WF centre  114  ( 10.347183,  3.954977,  3.358282 )
  WF centre  115  ( 10.352379,  3.991438,  3.358338 )
  WF centre  116  (  8.555697,  6.961747, -0.056842 )
  WF centre  117  (  8.645138,  6.960237,  0.018155 )
  WF centre  118  (  8.607908,  6.991896,  0.042497 )
  WF centre  119  (  8.493634,  6.961593,  3.493575 )
  WF centre  120  (  8.629973,  6.956268,  3.348790 )
  WF centre  121  (  8.615392,  6.992587,  3.341590 )
  WF centre  122  (  6.862608,  9.892774, -0.054989 )
  WF centre  123  (  6.902450,  9.934408,  0.034476 )
  WF centre  124  (  6.913611,  9.972603,  0.024294 )
  WF centre  125  (  6.830448,  9.839319,  3.493387 )
  WF centre  126  (  6.904332,  9.924599,  3.338469 )
  WF centre  127  (  6.905997,  9.976889,  3.352122 )
  WF centre  128  (  3.475500,  9.892775, -0.054991 )
  WF centre  129  (  3.435668,  9.934408,  0.034473 )
  WF centre  130  (  3.424510,  9.972605,  0.024293 )
  WF centre  131  (  3.507703,  9.839325,  3.493385 )
  WF centre  132  (  3.433800,  9.924607,  3.338466 )
  WF centre  133  (  3.432138,  9.976883,  3.352122 )
  WF centre  134  (  0.001760,  9.944934, -0.107554 )
  WF centre  135  ( -0.001116,  9.933864,  0.019143 )
  WF centre  136  ( -0.000601,  9.964195,  0.022299 )
  WF centre  137  (  0.010062,  9.939805,  3.472389 )
  WF centre  138  (  0.006344,  9.927935,  3.340370 )
  WF centre  139  (  0.007554,  9.961427,  3.342555 )
  WF centre  140  ( -3.447803,  9.944935, -0.107554 )
  WF centre  141  ( -3.444933,  9.933860,  0.019141 )
  WF centre  142  ( -3.445446,  9.964194,  0.022296 )
  WF centre  143  ( -3.456101,  9.939804,  3.472389 )
  WF centre  144  ( -3.452381,  9.927940,  3.340368 )
  WF centre  145  ( -3.453596,  9.961427,  3.342555 )
  WF centre  146  (  6.863970,  4.027215, -0.057073 )
  WF centre  147  (  6.876575,  3.958503,  0.037831 )
  WF centre  148  (  6.896716,  3.970472,  0.022878 )
  WF centre  149  (  6.830809,  4.082463,  3.494105 )
  WF centre  150  (  6.890256,  3.951251,  3.348195 )
  WF centre  151  (  6.884473,  3.985075,  3.341713 )
  WF centre  152  (  5.169064,  6.962983,  0.534596 )
  WF centre  153  (  5.169066,  6.923216,  0.246984 )
  WF centre  154  (  5.169069,  7.004170,  0.246805 )
  WF centre  155  (  5.169058,  6.961048,  6.433499 )
  WF centre  156  (  5.169064,  6.955408,  3.752660 )
  WF centre  157  (  5.169061,  6.972680,  3.752528 )
  WF centre  158  (  1.782419,  6.961750, -0.056844 )
  WF centre  159  (  1.692984,  6.960231,  0.018161 )
  WF centre  160  (  1.730214,  6.991898,  0.042498 )
  WF centre  161  (  1.844510,  6.961595,  3.493579 )
  WF centre  162  (  1.708155,  6.956276,  3.348796 )
  WF centre  163  (  1.722742,  6.992584,  3.341591 )
  WF centre  164  (  3.474147,  4.027220, -0.057073 )
  WF centre  165  (  3.461546,  3.958509,  0.037837 )
  WF centre  166  (  3.441403,  3.970474,  0.022883 )
  WF centre  167  (  3.507344,  4.082457,  3.494111 )
  WF centre  168  (  3.447882,  3.951244,  3.348202 )
  WF centre  169  (  3.453660,  3.985078,  3.341716 )
  WF centre  170  ( -0.003934,  3.974492, -0.112081 )
  WF centre  171  ( -0.016104,  3.953829,  0.005439 )
  WF centre  172  ( -0.016659,  3.987301,  0.005005 )
  WF centre  173  (  0.005940,  3.980375,  3.491761 )
  WF centre  174  ( -0.009050,  3.954967,  3.358279 )
  WF centre  175  ( -0.014242,  3.991453,  3.358329 )
  WF centre  176  ( -1.723024,  6.959571, -0.056404 )
  WF centre  177  ( -1.723018,  6.949708,  0.074839 )
  WF centre  178  ( -1.723020,  6.979667,  0.076069 )
  WF centre  179  ( -1.723019,  6.960087,  3.430404 )
  WF centre  180  ( -1.723022,  6.945760,  3.290374 )
  WF centre  181  ( -1.723024,  6.979506,  3.289300 )
 ------------------------------------------------------------------------------
 

 Wannier centres written to file 1Fe_initialconf.up_centres.xyz
  
  Omega Invariant:   1-s^2 =   374.115418593 (Ang^2)
                   -2log s =   384.296807076 (Ang^2)
                    acos^2 =   380.794090864 (Ang^2)
 Time for wannierise           46.055 (sec)

 Writing checkpoint file 1Fe_initialconf.up.chk... done

 *---------------------------------------------------------------------------*
 |                               PLOTTING                                    |
 *---------------------------------------------------------------------------*
 
   19 lattice points in Wigner-Seitz supercell:

      vector  -2  -2   0   degeneracy:  2
      vector  -2  -1   0   degeneracy:  1
      vector  -2   0   0   degeneracy:  2
      vector  -1  -2   0   degeneracy:  1
      vector  -1  -1   0   degeneracy:  1
      vector  -1   0   0   degeneracy:  1
      vector  -1   1   0   degeneracy:  1
      vector   0  -2   0   degeneracy:  2
      vector   0  -1   0   degeneracy:  1
      vector   0   0   0   degeneracy:  1
      vector   0   1   0   degeneracy:  1
      vector   0   2   0   degeneracy:  2
      vector   1  -1   0   degeneracy:  1
      vector   1   0   0   degeneracy:  1
      vector   1   1   0   degeneracy:  1
      vector   1   2   0   degeneracy:  1
      vector   2   0   0   degeneracy:  2
      vector   2   1   0   degeneracy:  1
      vector   2   2   0   degeneracy:  2
  tot =       16.000
  mp_grid product =           16
 
 Calculating interpolated band-structure
 
 Time to calculate interpolated band structure      23.334 (sec)
 
 Time for plotting             26.716 (sec)
 Total Execution Time         281.674 (sec)

 *===========================================================================*
 |                             TIMING INFORMATION                            |
 *===========================================================================*
 |    Tag                                                Ncalls      Time (s)|
 |---------------------------------------------------------------------------|
 |kmesh: get                                        :         1         0.020|
 |overlap: allocate                                 :         1         0.008|
 |overlap: read                                     :         1        62.656|
 |dis: main                                         :         1       146.133|
 |wann: main                                        :         1        46.055|
 |plot: main                                        :         1        26.716|
 *---------------------------------------------------------------------------*
 
 All done: wannier90 exiting
