
     Program PWSCF v.6.8 starts on 11Jul2023 at 16:53:10 

     This program is part of the open-source Quantum ESPRESSO suite
     for quantum simulation of materials; please cite
         "P. Giannozzi et al., J. Phys.:Condens. Matter 21 395502 (2009);
         "P. Giannozzi et al., J. Phys.:Condens. Matter 29 465901 (2017);
         "P. Giannozzi et al., J. Chem. Phys. 152 154105 (2020);
          URL http://www.quantum-espresso.org", 
     in publications or presentations arising from this work. More details at
     http://www.quantum-espresso.org/quote

     Parallel version (MPI & OpenMP), running on      80 processor cores
     Number of MPI processes:                80
     Threads/MPI process:                     1

     MPI processes distributed on     2 nodes
     R & G space division:  proc/nbgrp/npool/nimage =      80
     183165 MiB available memory on the printing compute node when the environment starts
 
     Reading input from 1Fe_initialconf.scf.in

     Current dimensions of program PWSCF are:
     Max number of different atomic species (ntypx) = 10
     Max number of k-points (npk) =  40000
     Max angular momentum in pseudopotentials (lmaxx) =  4
     file Cr.pbe-spn-kjpaw_psl.1.0.0.UPF: wavefunction(s)  3S 3P 3D renormalized
     file Nb.pbe-spn-kjpaw_psl.1.0.0.UPF: wavefunction(s)  4S 4P 4D renormalized
     file Se.pbe-n-kjpaw_psl.1.0.0.UPF: wavefunction(s)  4S renormalized

     Subspace diagonalization in iterative solution of the eigenvalue problem:
     one sub-group per band group will be used
     scalapack distributed-memory algorithm (size of sub-group:  8*  8 procs)

 
     Parallelization info
     --------------------
     sticks:   dense  smooth     PW     G-vecs:    dense   smooth      PW
     Min         467     174     45               125329    28766    3799
     Max         468     175     46               125336    28783    3810
     Sum       37435   13999   3643             10026649  2302489  304271
 
     Using Slab Decomposition
 


     bravais-lattice index     =            4
     lattice parameter (alat)  =      26.0483  a.u.
     unit-cell volume          =   26240.8884 (a.u.)^3
     number of atoms/cell      =           49
     number of atomic types    =            3
     number of electrons       =       414.00
     number of Kohn-Sham states=          248
     kinetic-energy cutoff     =      75.0000  Ry
     charge density cutoff     =     800.0000  Ry
     scf convergence threshold =      1.0E-07
     mixing beta               =       0.7000
     number of iterations used =            8  local-TF  mixing
     Exchange-correlation= SLA  PW   PBX  PBC
                           (   1   4   3   4   0   0   0)

     celldm(1)=  26.048308  celldm(2)=   0.000000  celldm(3)=   1.714389
     celldm(4)=   0.000000  celldm(5)=   0.000000  celldm(6)=   0.000000

     crystal axes: (cart. coord. in units of alat)
               a(1) = (   1.000000   0.000000   0.000000 )  
               a(2) = (  -0.500000   0.866025   0.000000 )  
               a(3) = (   0.000000   0.000000   1.714389 )  

     reciprocal axes: (cart. coord. in units 2 pi/alat)
               b(1) = (  1.000000  0.577350  0.000000 )  
               b(2) = (  0.000000  1.154701  0.000000 )  
               b(3) = (  0.000000  0.000000  0.583298 )  


     PseudoPot. # 1 for Cr read from file:
     /ptmp/jojaibal/YSR_Project/Cr.pbe-spn-kjpaw_psl.1.0.0.UPF
     MD5 check sum: 7e2868eaf0e426e74b90ebb04087dc43
     Pseudo is Projector augmented-wave + core cor, Zval = 14.0
     Generated using &quot;atomic&quot; code by A. Dal Corso  v.6.3
     Shape of augmentation charge: PSQ
     Using radial grid of 1183 points,  6 beta functions with: 
                l(1) =   0
                l(2) =   0
                l(3) =   1
                l(4) =   1
                l(5) =   2
                l(6) =   2
     Q(r) pseudized with 0 coefficients 


     PseudoPot. # 2 for Nb read from file:
     /ptmp/jojaibal/YSR_Project/Nb.pbe-spn-kjpaw_psl.1.0.0.UPF
     MD5 check sum: dcedcbb129af9a7271e4748e5febedb1
     Pseudo is Projector augmented-wave + core cor, Zval = 13.0
     Generated using &quot;atomic&quot; code by A. Dal Corso  v.6.2.2
     Shape of augmentation charge: PSQ
     Using radial grid of 1227 points,  6 beta functions with: 
                l(1) =   0
                l(2) =   0
                l(3) =   1
                l(4) =   1
                l(5) =   2
                l(6) =   2
     Q(r) pseudized with 0 coefficients 


     PseudoPot. # 3 for Se read from file:
     /ptmp/jojaibal/YSR_Project/Se.pbe-n-kjpaw_psl.1.0.0.UPF
     MD5 check sum: 12232cb78b362a7b0fca8da9cb95fd5e
     Pseudo is Projector augmented-wave + core cor, Zval =  6.0
     Generated using &quot;atomic&quot; code by A. Dal Corso  v.6.3
     Shape of augmentation charge: PSQ
     Using radial grid of 1211 points,  4 beta functions with: 
                l(1) =   0
                l(2) =   0
                l(3) =   1
                l(4) =   1
     Q(r) pseudized with 0 coefficients 


     atomic species   valence    mass     pseudopotential
        Cr            14.00    51.99610     Cr( 1.00)
        Nb            13.00    92.90638     Nb( 1.00)
        Se             6.00    78.96000     Se( 1.00)

     Starting magnetic structure 
     atomic species   magnetization
        Cr           0.500
        Nb           0.000
        Se           0.000


     Simplified LDA+U calculation (l_max = 2) with parameters (eV):
     atomic species    L          U    alpha       J0     beta
        Cr             2     4.0000   0.0000   0.0000   0.0000



      6 Sym. Ops. (no inversion) found ( 5 have fractional translation)



   Cartesian axes

     site n.     atom                  positions (alat units)
         1           Cr  tau(   1) = (   0.3750000   0.5051815   0.4092936  )
         2           Nb  tau(   2) = (  -0.0040904   0.0003661   0.1219132  )
         3           Se  tau(   3) = (   0.1250375   0.0721471   0.0018606  )
         4           Se  tau(   4) = (   0.1249176   0.0722163   0.2419496  )
         5           Nb  tau(   5) = (   0.2517968  -0.0010374   0.1218603  )
         6           Se  tau(   6) = (   0.3750000   0.0716641  -0.0019117  )
         7           Se  tau(   7) = (   0.3750000   0.0724101   0.2452920  )
         8           Nb  tau(   8) = (   0.4982032  -0.0010374   0.1218603  )
         9           Se  tau(   9) = (   0.6249625   0.0721471   0.0018606  )
        10           Se  tau(  10) = (   0.6250824   0.0722163   0.2419496  )
        11           Nb  tau(  11) = (   0.7540904   0.0003661   0.1219132  )
        12           Se  tau(  12) = (   0.8750000   0.0732875  -0.0024847  )
        13           Se  tau(  13) = (   0.8750000   0.0732540   0.2464035  )
        14           Nb  tau(  14) = (   0.6273623   0.2198656   0.1219132  )
        15           Se  tau(  15) = (   0.7509689   0.2881158  -0.0024847  )
        16           Se  tau(  16) = (   0.7509398   0.2881325   0.2464035  )
        17           Nb  tau(  17) = (   0.5087240   0.4279759   0.1204649  )
        18           Se  tau(  18) = (   0.6267970   0.5061268  -0.0018105  )
        19           Se  tau(  19) = (   0.6260215   0.5059309   0.2451397  )
        20           Nb  tau(  20) = (   0.3750000   0.6595927   0.1204649  )
        21           Se  tau(  21) = (   0.5017172   0.7227714  -0.0018105  )
        22           Se  tau(  22) = (   0.5011598   0.7221978   0.2451397  )
        23           Nb  tau(  23) = (   0.1238888   0.6501606   0.1212538  )
        24           Se  tau(  24) = (   0.2482828   0.7227714  -0.0018105  )
        25           Se  tau(  25) = (   0.2488402   0.7221978   0.2451397  )
        26           Nb  tau(  26) = (  -0.1250000   0.6515938   0.1218603  )
        27           Se  tau(  27) = (  -0.0004371   0.7219402  -0.0019117  )
        28           Se  tau(  28) = (   0.0002090   0.7215672   0.2452920  )
        29           Nb  tau(  29) = (  -0.3738888   0.6501606   0.1212538  )
        30           Se  tau(  30) = (  -0.2495629   0.7219402  -0.0019117  )
        31           Se  tau(  31) = (  -0.2502090   0.7215672   0.2452920  )
        32           Nb  tau(  32) = (   0.3750000   0.2152232   0.1212538  )
        33           Se  tau(  33) = (   0.5000799   0.2866462  -0.0018105  )
        34           Se  tau(  34) = (   0.4998618   0.2874158   0.2451397  )
        35           Nb  tau(  35) = (   0.2412760   0.4279759   0.1204649  )
        36           Se  tau(  36) = (   0.3750000   0.5051815   0.0083172  )
        37           Se  tau(  37) = (   0.3750000   0.5051815   0.2337220  )
        38           Nb  tau(  38) = (   0.0017281   0.4292873   0.1219132  )
        39           Se  tau(  39) = (   0.1232030   0.5061268  -0.0018105  )
        40           Se  tau(  40) = (   0.1239785   0.5059309   0.2451397  )
        41           Nb  tau(  41) = (   0.1226377   0.2198656   0.1219132  )
        42           Se  tau(  42) = (   0.2499201   0.2866462  -0.0018105  )
        43           Se  tau(  43) = (   0.2501382   0.2874158   0.2451397  )
        44           Nb  tau(  44) = (  -0.1250000   0.2165064   0.1219629  )
        45           Se  tau(  45) = (  -0.0009689   0.2881158  -0.0024847  )
        46           Se  tau(  46) = (  -0.0009398   0.2881325   0.2464035  )
        47           Nb  tau(  47) = (  -0.2517281   0.4292873   0.1219132  )
        48           Se  tau(  48) = (  -0.1250000   0.5052248   0.0018606  )
        49           Se  tau(  49) = (  -0.1250000   0.5050864   0.2419496  )

     number of k points=     7  Methfessel-Paxton smearing, width (Ry)=  0.0200
                       cart. coord. in units 2pi/alat
        k(    1) = (   0.0000000   0.0000000   0.0000000), wk =   0.0277778
        k(    2) = (   0.0000000   0.1924501   0.0000000), wk =   0.1666667
        k(    3) = (   0.0000000   0.3849002   0.0000000), wk =   0.1666667
        k(    4) = (   0.0000000  -0.5773503   0.0000000), wk =   0.0833333
        k(    5) = (   0.1666667   0.2886751   0.0000000), wk =   0.1666667
        k(    6) = (   0.1666667   0.4811252   0.0000000), wk =   0.3333333
        k(    7) = (   0.3333333   0.5773503   0.0000000), wk =   0.0555556

     Dense  grid: 10026649 G-vectors     FFT dimensions: ( 240, 240, 405)

     Smooth grid:  2302489 G-vectors     FFT dimensions: ( 144, 144, 250)

     Estimated max dynamical RAM per process >     798.95 MB

     Estimated total dynamical RAM >      62.42 GB
     Generating pointlists ...
     new r_m :   0.0724 (alat units)  1.8865 (a.u.) for type    1
     new r_m :   0.0772 (alat units)  2.0102 (a.u.) for type    2
     new r_m :   0.0724 (alat units)  1.8865 (a.u.) for type    3

     Initial potential from superposition of free atoms

     starting charge  413.97586, renormalised to  414.00000

     negative rho (up, down):  1.173E-03 8.722E-04
     Number of +U iterations with fixed ns =  0
     Starting occupations:
 --- enter write_ns ---
 LDA+U parameters:
U( 1)     =  4.00000000
atom    1   Tr[ns(na)] (up, down, total) =   5.00000  0.00000  5.00000
   spin  1
    eigenvalues: 
  1.000  1.000  1.000  1.000  1.000
    eigenvectors:
  1.000  0.000  0.000  0.000  0.000
  0.000  1.000  0.000  0.000  0.000
  0.000  0.000  1.000  0.000  0.000
  0.000  0.000  0.000  1.000  0.000
  0.000  0.000  0.000  0.000  1.000
    occupations:
  1.000  0.000  0.000  0.000  0.000
  0.000  1.000  0.000  0.000  0.000
  0.000  0.000  1.000  0.000  0.000
  0.000  0.000  0.000  1.000  0.000
  0.000  0.000  0.000  0.000  1.000
   spin  2
    eigenvalues: 
  0.000  0.000  0.000  0.000  0.000
    eigenvectors:
  1.000  0.000  0.000  0.000  0.000
  0.000  1.000  0.000  0.000  0.000
  0.000  0.000  1.000  0.000  0.000
  0.000  0.000  0.000  1.000  0.000
  0.000  0.000  0.000  0.000  1.000
    occupations:
  0.000  0.000  0.000  0.000  0.000
  0.000  0.000  0.000  0.000  0.000
  0.000  0.000  0.000  0.000  0.000
  0.000  0.000  0.000  0.000  0.000
  0.000  0.000  0.000  0.000  0.000
atomic mag. moment =   5.00000
N of occupied +U levels =    5.000000
 --- exit write_ns ---
 Atomic wfc used for LDA+U Projector are NOT orthogonalized
     Starting wfcs are  346 randomized atomic wfcs
     Checking if some PAW data can be deallocated... 

     total cpu time spent up to now is       69.6 secs

     Self-consistent Calculation

     iteration #  1     ecut=    75.00 Ry     beta= 0.70
     Davidson diagonalization with overlap
     ethr =  1.00E-02,  avg # of iterations =  2.0
 --- enter write_ns ---
 LDA+U parameters:
U( 1)     =  4.00000000
atom    1   Tr[ns(na)] (up, down, total) =   4.98194  0.08666  5.06860
   spin  1
    eigenvalues: 
  0.991  0.996  0.996  0.999  0.999
    eigenvectors:
  1.000  0.000  0.000  0.000  0.000
  0.000  0.075  0.922  0.002  0.000
  0.000  0.922  0.075  0.000  0.002
  0.000  0.002  0.000  0.177  0.820
  0.000  0.000  0.002  0.820  0.177
    occupations:
  0.991 -0.000 -0.000 -0.000 -0.000
 -0.000  0.996 -0.000  0.000 -0.000
 -0.000 -0.000  0.996 -0.000 -0.000
 -0.000  0.000 -0.000  0.999  0.000
 -0.000 -0.000 -0.000  0.000  0.999
   spin  2
    eigenvalues: 
  0.001  0.001  0.014  0.014  0.057
    eigenvectors:
  0.000  0.000  0.000  0.000  1.000
  0.000  0.000  0.092  0.907  0.000
  0.000  0.000  0.907  0.092  0.000
  0.188  0.812  0.000  0.000  0.000
  0.812  0.188  0.000  0.000  0.000
    occupations:
  0.057 -0.000 -0.000 -0.000 -0.000
 -0.000  0.014 -0.000  0.000 -0.000
 -0.000 -0.000  0.014 -0.000  0.000
 -0.000  0.000 -0.000  0.001  0.000
 -0.000 -0.000  0.000  0.000  0.001
atomic mag. moment =   4.89527
N of occupied +U levels =    5.068602
 --- exit write_ns ---

     Threshold (ethr) on eigenvalues was too large:
     Diagonalizing with lowered threshold

     Davidson diagonalization with overlap
     ethr =  5.13E-04,  avg # of iterations =  2.0

     negative rho (up, down):  8.619E-07 7.054E-07

     total cpu time spent up to now is      210.9 secs

     total energy              =  -11657.79743479 Ry
     estimated scf accuracy    <       2.44617292 Ry

     total magnetization       =     4.98 Bohr mag/cell
     absolute magnetization    =     5.15 Bohr mag/cell

     iteration #  2     ecut=    75.00 Ry     beta= 0.70
     Davidson diagonalization with overlap
     ethr =  5.91E-04,  avg # of iterations =  2.3

     negative rho (up, down):  1.832E-08 9.044E-07

     total cpu time spent up to now is      284.0 secs

     total energy              =  -11657.66902541 Ry
     estimated scf accuracy    <       0.95114310 Ry

     total magnetization       =     4.91 Bohr mag/cell
     absolute magnetization    =     5.17 Bohr mag/cell

     iteration #  3     ecut=    75.00 Ry     beta= 0.70
     Davidson diagonalization with overlap
     ethr =  2.30E-04,  avg # of iterations =  2.8

     negative rho (up, down):  1.804E-07 9.097E-07

     total cpu time spent up to now is      362.2 secs

     total energy              =  -11657.73195630 Ry
     estimated scf accuracy    <       0.33145997 Ry

     total magnetization       =     4.67 Bohr mag/cell
     absolute magnetization    =     5.12 Bohr mag/cell

     iteration #  4     ecut=    75.00 Ry     beta= 0.70
     Davidson diagonalization with overlap
     ethr =  8.01E-05,  avg # of iterations =  3.4

     negative rho (up, down):  7.681E-07 7.978E-07

     total cpu time spent up to now is      438.9 secs

     total energy              =  -11657.72649959 Ry
     estimated scf accuracy    <       0.11915988 Ry

     total magnetization       =     4.81 Bohr mag/cell
     absolute magnetization    =     5.29 Bohr mag/cell

     iteration #  5     ecut=    75.00 Ry     beta= 0.70
     Davidson diagonalization with overlap
     ethr =  2.88E-05,  avg # of iterations =  8.5

     negative rho (up, down):  3.635E-07 5.008E-07

     total cpu time spent up to now is      519.9 secs

     total energy              =  -11657.71634932 Ry
     estimated scf accuracy    <       0.06720157 Ry

     total magnetization       =     4.82 Bohr mag/cell
     absolute magnetization    =     5.35 Bohr mag/cell

     iteration #  6     ecut=    75.00 Ry     beta= 0.70
     Davidson diagonalization with overlap
     c_bands:  2 eigenvalues not converged
     c_bands:  1 eigenvalues not converged
     c_bands:  1 eigenvalues not converged
     ethr =  1.62E-05,  avg # of iterations =  9.7

     negative rho (up, down):  1.282E-07 4.895E-04

     total cpu time spent up to now is      604.1 secs

     total energy              =  -11657.71425553 Ry
     estimated scf accuracy    <       0.03329540 Ry

     total magnetization       =     4.81 Bohr mag/cell
     absolute magnetization    =     5.39 Bohr mag/cell

     iteration #  7     ecut=    75.00 Ry     beta= 0.70
     Davidson diagonalization with overlap
     c_bands:  1 eigenvalues not converged
     c_bands:  2 eigenvalues not converged
     c_bands:  4 eigenvalues not converged
     c_bands:  1 eigenvalues not converged
     ethr =  8.04E-06,  avg # of iterations = 12.1

     negative rho (up, down):  1.284E-06 1.988E-03

     total cpu time spent up to now is      691.1 secs

     total energy              =  -11657.71459845 Ry
     estimated scf accuracy    <       0.01966614 Ry

     total magnetization       =     4.81 Bohr mag/cell
     absolute magnetization    =     5.44 Bohr mag/cell

     iteration #  8     ecut=    75.00 Ry     beta= 0.70
     Davidson diagonalization with overlap
     c_bands:  1 eigenvalues not converged
     ethr =  4.75E-06,  avg # of iterations =  9.8

     negative rho (up, down):  1.749E-02 2.591E-02

     total cpu time spent up to now is      773.7 secs

     total energy              =  -11657.71334538 Ry
     estimated scf accuracy    <       0.01369110 Ry

     total magnetization       =     4.81 Bohr mag/cell
     absolute magnetization    =     5.47 Bohr mag/cell

     iteration #  9     ecut=    75.00 Ry     beta= 0.70
     Davidson diagonalization with overlap
     c_bands:  2 eigenvalues not converged
     c_bands:  2 eigenvalues not converged
     c_bands:  1 eigenvalues not converged
     ethr =  3.31E-06,  avg # of iterations = 10.3

     negative rho (up, down):  2.914E-02 3.311E-02

     total cpu time spent up to now is      856.9 secs

     total energy              =  -11657.71122540 Ry
     estimated scf accuracy    <       0.00718031 Ry

     total magnetization       =     4.81 Bohr mag/cell
     absolute magnetization    =     5.53 Bohr mag/cell

     iteration # 10     ecut=    75.00 Ry     beta= 0.70
     Davidson diagonalization with overlap
     c_bands:  3 eigenvalues not converged
     c_bands:  1 eigenvalues not converged
     ethr =  1.73E-06,  avg # of iterations = 10.1

     negative rho (up, down):  1.814E-02 1.925E-02

     total cpu time spent up to now is      942.0 secs

     total energy              =  -11657.71142261 Ry
     estimated scf accuracy    <       0.00245534 Ry

     total magnetization       =     4.81 Bohr mag/cell
     absolute magnetization    =     5.55 Bohr mag/cell

     iteration # 11     ecut=    75.00 Ry     beta= 0.70
     Davidson diagonalization with overlap
     c_bands:  1 eigenvalues not converged
     ethr =  5.93E-07,  avg # of iterations =  4.5

     negative rho (up, down):  7.965E-03 8.241E-03

     total cpu time spent up to now is     1015.2 secs

     total energy              =  -11657.71161874 Ry
     estimated scf accuracy    <       0.00093173 Ry

     total magnetization       =     4.81 Bohr mag/cell
     absolute magnetization    =     5.56 Bohr mag/cell

     iteration # 12     ecut=    75.00 Ry     beta= 0.70
     Davidson diagonalization with overlap
     ethr =  2.25E-07,  avg # of iterations =  2.3

     negative rho (up, down):  4.122E-03 4.172E-03

     total cpu time spent up to now is     1085.4 secs

     total energy              =  -11657.71166675 Ry
     estimated scf accuracy    <       0.00019818 Ry

     total magnetization       =     4.81 Bohr mag/cell
     absolute magnetization    =     5.57 Bohr mag/cell

     iteration # 13     ecut=    75.00 Ry     beta= 0.70
     Davidson diagonalization with overlap
     ethr =  4.79E-08,  avg # of iterations =  2.7

     negative rho (up, down):  2.114E-03 2.180E-03

     total cpu time spent up to now is     1158.7 secs

     total energy              =  -11657.71167432 Ry
     estimated scf accuracy    <       0.00006701 Ry

     total magnetization       =     4.81 Bohr mag/cell
     absolute magnetization    =     5.58 Bohr mag/cell

     iteration # 14     ecut=    75.00 Ry     beta= 0.70
     Davidson diagonalization with overlap
     ethr =  1.62E-08,  avg # of iterations =  3.5

     negative rho (up, down):  1.569E-03 1.627E-03

     total cpu time spent up to now is     1233.1 secs

     total energy              =  -11657.71169371 Ry
     estimated scf accuracy    <       0.00002971 Ry

     total magnetization       =     4.81 Bohr mag/cell
     absolute magnetization    =     5.58 Bohr mag/cell

     iteration # 15     ecut=    75.00 Ry     beta= 0.70
     Davidson diagonalization with overlap
     ethr =  7.18E-09,  avg # of iterations =  2.2

     negative rho (up, down):  7.308E-04 8.314E-04

     total cpu time spent up to now is     1303.3 secs

     total energy              =  -11657.71172967 Ry
     estimated scf accuracy    <       0.00001084 Ry

     total magnetization       =     4.80 Bohr mag/cell
     absolute magnetization    =     5.59 Bohr mag/cell

     iteration # 16     ecut=    75.00 Ry     beta= 0.70
     Davidson diagonalization with overlap
     ethr =  2.62E-09,  avg # of iterations =  3.4

     negative rho (up, down):  6.459E-04 7.292E-04

     total cpu time spent up to now is     1384.3 secs

     total energy              =  -11657.71173574 Ry
     estimated scf accuracy    <       0.00000169 Ry

     total magnetization       =     4.80 Bohr mag/cell
     absolute magnetization    =     5.59 Bohr mag/cell

     iteration # 17     ecut=    75.00 Ry     beta= 0.70
     Davidson diagonalization with overlap
     ethr =  4.09E-10,  avg # of iterations =  8.4

     negative rho (up, down):  6.616E-04 7.405E-04

     total cpu time spent up to now is     1479.4 secs

     total energy              =  -11657.71173681 Ry
     estimated scf accuracy    <       0.00000045 Ry

     total magnetization       =     4.80 Bohr mag/cell
     absolute magnetization    =     5.59 Bohr mag/cell

     iteration # 18     ecut=    75.00 Ry     beta= 0.70
     Davidson diagonalization with overlap
     ethr =  1.08E-10,  avg # of iterations =  2.9

     negative rho (up, down):  6.381E-04 7.065E-04

     total cpu time spent up to now is     1554.6 secs

     total energy              =  -11657.71173658 Ry
     estimated scf accuracy    <       0.00000020 Ry

     total magnetization       =     4.80 Bohr mag/cell
     absolute magnetization    =     5.60 Bohr mag/cell

     iteration # 19     ecut=    75.00 Ry     beta= 0.70
     Davidson diagonalization with overlap
     ethr =  4.72E-11,  avg # of iterations =  2.0

     negative rho (up, down):  6.530E-04 7.108E-04
 
     Magnetic moment per site  (integrated on atomic sphere of radius R)
     atom   1 (R=0.072)  charge= 12.0616  magn=  4.0441
     atom   2 (R=0.077)  charge= 10.0413  magn= -0.0000
     atom   3 (R=0.072)  charge=  3.5279  magn= -0.0006
     atom   4 (R=0.072)  charge=  3.5293  magn= -0.0007
     atom   5 (R=0.077)  charge= 10.0365  magn= -0.0246
     atom   6 (R=0.072)  charge=  3.5291  magn= -0.0002
     atom   7 (R=0.072)  charge=  3.5304  magn= -0.0004
     atom   8 (R=0.077)  charge= 10.0365  magn= -0.0246
     atom   9 (R=0.072)  charge=  3.5279  magn= -0.0006
     atom  10 (R=0.072)  charge=  3.5293  magn= -0.0007
     atom  11 (R=0.077)  charge= 10.0413  magn= -0.0000
     atom  12 (R=0.072)  charge=  3.5302  magn= -0.0002
     atom  13 (R=0.072)  charge=  3.5311  magn=  0.0000
     atom  14 (R=0.077)  charge= 10.0413  magn= -0.0000
     atom  15 (R=0.072)  charge=  3.5302  magn= -0.0002
     atom  16 (R=0.072)  charge=  3.5311  magn=  0.0000
     atom  17 (R=0.077)  charge= 10.0494  magn=  0.0100
     atom  18 (R=0.072)  charge=  3.5315  magn= -0.0004
     atom  19 (R=0.072)  charge=  3.5327  magn= -0.0008
     atom  20 (R=0.077)  charge= 10.0494  magn=  0.0100
     atom  21 (R=0.072)  charge=  3.5315  magn= -0.0004
     atom  22 (R=0.072)  charge=  3.5327  magn= -0.0008
     atom  23 (R=0.077)  charge= 10.0385  magn= -0.0159
     atom  24 (R=0.072)  charge=  3.5315  magn= -0.0004
     atom  25 (R=0.072)  charge=  3.5327  magn= -0.0008
     atom  26 (R=0.077)  charge= 10.0365  magn= -0.0246
     atom  27 (R=0.072)  charge=  3.5291  magn= -0.0002
     atom  28 (R=0.072)  charge=  3.5304  magn= -0.0004
     atom  29 (R=0.077)  charge= 10.0385  magn= -0.0159
     atom  30 (R=0.072)  charge=  3.5291  magn= -0.0002
     atom  31 (R=0.072)  charge=  3.5304  magn= -0.0004
     atom  32 (R=0.077)  charge= 10.0385  magn= -0.0159
     atom  33 (R=0.072)  charge=  3.5315  magn= -0.0004
     atom  34 (R=0.072)  charge=  3.5327  magn= -0.0008
     atom  35 (R=0.077)  charge= 10.0494  magn=  0.0100
     atom  36 (R=0.072)  charge=  3.5251  magn= -0.0176
     atom  37 (R=0.072)  charge=  3.5746  magn= -0.0721
     atom  38 (R=0.077)  charge= 10.0413  magn= -0.0000
     atom  39 (R=0.072)  charge=  3.5315  magn= -0.0004
     atom  40 (R=0.072)  charge=  3.5327  magn= -0.0008
     atom  41 (R=0.077)  charge= 10.0413  magn= -0.0000
     atom  42 (R=0.072)  charge=  3.5315  magn= -0.0004
     atom  43 (R=0.072)  charge=  3.5327  magn= -0.0008
     atom  44 (R=0.077)  charge= 10.0419  magn=  0.0058
     atom  45 (R=0.072)  charge=  3.5302  magn= -0.0002
     atom  46 (R=0.072)  charge=  3.5311  magn=  0.0000
     atom  47 (R=0.077)  charge= 10.0413  magn= -0.0000
     atom  48 (R=0.072)  charge=  3.5279  magn= -0.0006
     atom  49 (R=0.072)  charge=  3.5293  magn= -0.0007

     total cpu time spent up to now is     1622.5 secs

     End of self-consistent calculation
 --- enter write_ns ---
 LDA+U parameters:
U( 1)     =  4.00000000
atom    1   Tr[ns(na)] (up, down, total) =   4.90376  0.09520  4.99895
   spin  1
    eigenvalues: 
  0.937  0.987  0.987  0.997  0.997
    eigenvectors:
  1.000  0.000  0.000  0.000  0.000
  0.000  0.064  0.927  0.008  0.002
  0.000  0.927  0.064  0.002  0.008
  0.000  0.009  0.001  0.170  0.821
  0.000  0.001  0.009  0.821  0.170
    occupations:
  0.937 -0.000 -0.000 -0.000 -0.000
 -0.000  0.987 -0.000  0.000 -0.001
 -0.000 -0.000  0.987 -0.001 -0.000
 -0.000  0.000 -0.001  0.996  0.000
 -0.000 -0.001 -0.000  0.000  0.996
   spin  2
    eigenvalues: 
  0.002  0.002  0.016  0.016  0.060
    eigenvectors:
  0.000  0.000  0.000  0.000  1.000
  0.000  0.000  0.091  0.909  0.000
  0.000  0.000  0.909  0.091  0.000
  0.189  0.811  0.000  0.000  0.000
  0.811  0.189  0.000  0.000  0.000
    occupations:
  0.060 -0.000 -0.000 -0.000 -0.000
 -0.000  0.016 -0.000  0.000 -0.000
 -0.000 -0.000  0.016 -0.000  0.000
 -0.000  0.000 -0.000  0.002  0.000
 -0.000 -0.000  0.000  0.000  0.002
atomic mag. moment =   4.80856
N of occupied +U levels =    4.998953
 --- exit write_ns ---

 ------ SPIN UP ------------


          k = 0.0000 0.0000 0.0000 (287679 PWs)   bands (ev):

   -72.5235 -56.1216 -56.1168 -56.1168 -56.1023 -56.1023 -56.1019 -56.0641
   -56.0547 -56.0547 -56.0230 -56.0096 -56.0096 -56.0065 -56.0024 -56.0024
   -55.9997 -44.0650 -43.9655 -43.9655 -32.3646 -32.3646 -32.3346 -32.2860
   -32.2860 -32.2714 -32.2714 -32.2575 -32.2443 -32.2203 -32.2164 -32.2145
   -32.2097 -32.2097 -32.1932 -32.1932 -32.1738 -32.1738 -32.1702 -32.1632
   -32.1513 -32.1513 -32.1493 -32.1493 -32.1323 -32.1323 -32.1318 -32.1298
   -32.1232 -32.1232 -32.1114 -32.1010 -32.1010 -32.1004 -32.0941 -32.0941
   -32.0783 -32.0783 -32.0727 -32.0655 -32.0637 -32.0608 -32.0608 -32.0129
   -32.0129 -31.9771 -31.9771 -31.9620 -14.7862 -14.3750 -14.0990 -14.0990
   -14.0641 -14.0465 -14.0465 -13.7930 -13.6556 -13.5079 -13.5079 -13.4907
   -13.4440 -13.4440 -13.4340 -13.3404 -13.3029 -13.3029 -13.2943 -13.2943
   -13.2631 -13.2631 -13.2494 -13.1874 -13.1573 -13.1522 -13.1522 -13.1275
   -13.1275 -13.0218 -13.0218 -13.0070  -6.2158  -6.1916  -6.1916  -6.1120
    -5.7699  -5.5621  -5.5621  -5.4756  -5.4756  -5.4469  -5.3949  -5.3559
    -5.3559  -5.3036  -5.2691  -5.2691  -5.2522  -5.2406  -5.2406  -5.1421
    -5.1393  -5.1393  -5.1213  -5.1209  -5.1209  -4.8814  -4.5863  -4.5863
    -4.4931  -4.4931  -4.4724  -4.4043  -4.4001  -4.3963  -4.3938  -4.3938
    -4.3657  -4.3657  -4.2602  -4.2602  -4.1361  -4.1361  -4.0806  -4.0240
    -4.0240  -3.8906  -3.8165  -3.8165  -3.7605  -3.7406  -3.7405  -3.6876
    -3.6155  -3.6155  -3.5425  -3.5282  -3.5282  -3.4714  -3.4579  -3.4187
    -3.4187  -3.3221  -3.3221  -3.1917  -3.1900  -3.1900  -2.9423  -2.8585
    -2.8585  -2.8524  -2.8524  -2.7419  -2.7419  -2.7396  -2.7089  -2.7089
    -2.7087  -2.5112  -2.4742  -2.4742  -2.4447  -2.4139  -2.4139  -2.3636
    -2.3528  -2.3528  -2.3189  -2.3046  -2.3046  -2.2489  -2.2036  -2.2007
    -2.2007  -2.1547  -2.1069  -2.1069  -1.8654  -1.8654  -1.8507  -1.8507
    -1.7013  -1.3307  -1.3307  -1.2849  -1.2723  -1.2723  -1.2105  -1.1970
    -1.1970  -1.1878  -1.0708  -1.0708  -1.0291  -0.8343  -0.7963  -0.7963
    -0.6816  -0.3132   0.9311   0.9311   1.1054   1.1836   1.2062   1.2062
     1.2638   1.2638   1.3519   1.3825   1.4275   1.4275   1.5146   1.5147
     1.5467   1.5842   1.5842   1.6141   1.6429   1.6584   1.6585   1.7079
     1.7079   1.7262   1.8516   1.8518   1.8597   1.9026   1.9028   1.9475

          k = 0.0000 0.1925 0.0000 (287730 PWs)   bands (ev):

   -72.5235 -56.1216 -56.1168 -56.1168 -56.1026 -56.1023 -56.1016 -56.0641
   -56.0547 -56.0547 -56.0230 -56.0096 -56.0096 -56.0065 -56.0024 -56.0024
   -55.9996 -44.0650 -43.9655 -43.9655 -32.3633 -32.3621 -32.3349 -32.2888
   -32.2878 -32.2752 -32.2705 -32.2560 -32.2447 -32.2166 -32.2158 -32.2150
   -32.2100 -32.2096 -32.1957 -32.1939 -32.1770 -32.1750 -32.1712 -32.1637
   -32.1512 -32.1507 -32.1462 -32.1446 -32.1345 -32.1337 -32.1320 -32.1293
   -32.1236 -32.1232 -32.1109 -32.1036 -32.0992 -32.0965 -32.0941 -32.0939
   -32.0786 -32.0784 -32.0725 -32.0655 -32.0635 -32.0607 -32.0573 -32.0148
   -32.0125 -31.9791 -31.9775 -31.9620 -14.7701 -14.4047 -14.2016 -14.1542
   -14.0595 -13.9655 -13.8962 -13.7798 -13.6629 -13.5493 -13.5216 -13.5087
   -13.4296 -13.4293 -13.4191 -13.3903 -13.3547 -13.3180 -13.3085 -13.2917
   -13.2564 -13.2073 -13.2037 -13.1961 -13.1875 -13.1603 -13.1518 -13.1342
   -13.1117 -13.0176 -13.0105 -13.0065  -6.2069  -6.1587  -6.1476  -6.0749
    -5.7677  -5.5954  -5.5730  -5.5170  -5.4608  -5.4398  -5.4150  -5.4106
    -5.3693  -5.3331  -5.3181  -5.3137  -5.2646  -5.2503  -5.2410  -5.2264
    -5.1983  -5.1399  -5.1371  -4.9362  -4.9320  -4.9155  -4.6425  -4.6211
    -4.5764  -4.4974  -4.4939  -4.4328  -4.4222  -4.3960  -4.3861  -4.3521
    -4.3411  -4.3143  -4.2821  -4.2596  -4.2065  -4.1774  -4.1242  -3.9749
    -3.9245  -3.8292  -3.7947  -3.7831  -3.7664  -3.7658  -3.7382  -3.7074
    -3.6718  -3.6155  -3.4910  -3.4870  -3.4682  -3.4192  -3.4169  -3.3363
    -3.3362  -3.2851  -3.2424  -3.2028  -3.1167  -3.1159  -3.0617  -2.9881
    -2.9656  -2.9191  -2.8339  -2.8220  -2.8184  -2.7791  -2.7012  -2.6962
    -2.6355  -2.5918  -2.5627  -2.4765  -2.4670  -2.4662  -2.4036  -2.3677
    -2.3424  -2.3284  -2.3255  -2.2630  -2.2532  -2.2121  -2.2079  -2.1722
    -2.1200  -2.1086  -2.0361  -2.0329  -1.9779  -1.9667  -1.8917  -1.8453
    -1.7871  -1.3932  -1.3291  -1.3230  -1.3079  -1.2370  -1.2163  -1.1653
    -1.1617  -1.0963  -1.0767  -1.0663  -0.9870  -0.8281  -0.7577  -0.7329
    -0.6810  -0.3177   0.9239   0.9269   1.0820   1.1627   1.1933   1.2038
     1.2510   1.2584   1.3349   1.3415   1.4258   1.4265   1.5178   1.5190
     1.5380   1.5838   1.5883   1.6001   1.6062   1.6416   1.6569   1.6968
     1.6985   1.7240   1.7959   1.8242   1.8551   1.8561   1.8664   1.8922

          k = 0.0000 0.3849 0.0000 (287830 PWs)   bands (ev):

   -72.5235 -56.1215 -56.1169 -56.1168 -56.1029 -56.1023 -56.1013 -56.0641
   -56.0548 -56.0547 -56.0230 -56.0096 -56.0095 -56.0065 -56.0025 -56.0024
   -55.9996 -44.0650 -43.9655 -43.9655 -32.3602 -32.3561 -32.3362 -32.2982
   -32.2936 -32.2733 -32.2690 -32.2557 -32.2440 -32.2190 -32.2166 -32.2120
   -32.2105 -32.2065 -32.2011 -32.1919 -32.1829 -32.1780 -32.1705 -32.1643
   -32.1511 -32.1496 -32.1415 -32.1379 -32.1364 -32.1354 -32.1325 -32.1273
   -32.1242 -32.1232 -32.1101 -32.1097 -32.0978 -32.0942 -32.0940 -32.0883
   -32.0791 -32.0786 -32.0721 -32.0661 -32.0655 -32.0605 -32.0452 -32.0207
   -32.0117 -31.9836 -31.9785 -31.9622 -14.7274 -14.4765 -14.2841 -14.2007
   -14.0050 -13.8436 -13.7690 -13.7195 -13.6678 -13.6147 -13.5648 -13.5404
   -13.5374 -13.4446 -13.3932 -13.3729 -13.3559 -13.3157 -13.3054 -13.2951
   -13.2570 -13.2466 -13.2442 -13.1871 -13.1555 -13.1509 -13.1413 -13.1369
   -13.0993 -13.0173 -12.9977 -12.9931  -6.1817  -6.0672  -6.0363  -5.9646
    -5.7623  -5.7123  -5.6893  -5.5896  -5.5164  -5.4451  -5.4368  -5.4306
    -5.4055  -5.3992  -5.3763  -5.3593  -5.3114  -5.2662  -5.2314  -5.2229
    -5.1635  -5.1531  -5.0858  -4.9899  -4.7294  -4.7100  -4.6407  -4.6375
    -4.6268  -4.5947  -4.5179  -4.5056  -4.4780  -4.4705  -4.4339  -4.3980
    -4.3840  -4.3413  -4.3235  -4.3063  -4.2067  -4.1799  -3.9604  -3.9454
    -3.8703  -3.8166  -3.7646  -3.7551  -3.7339  -3.6852  -3.6754  -3.6389
    -3.5957  -3.5373  -3.5043  -3.4513  -3.3958  -3.3620  -3.3310  -3.3308
    -3.2911  -3.2568  -3.2471  -3.1793  -3.1233  -3.1092  -3.1004  -2.9814
    -2.9539  -2.9445  -2.8997  -2.8602  -2.8481  -2.7764  -2.7160  -2.6761
    -2.6751  -2.6399  -2.5943  -2.5734  -2.5409  -2.4828  -2.4357  -2.3649
    -2.3648  -2.3294  -2.2985  -2.2971  -2.2842  -2.2607  -2.2375  -2.2166
    -2.1205  -2.1191  -2.0211  -2.0083  -1.9851  -1.9106  -1.8614  -1.8452
    -1.8248  -1.4677  -1.3863  -1.3511  -1.3265  -1.2403  -1.2123  -1.1478
    -1.0821  -1.0633  -1.0363  -1.0274  -0.8629  -0.8517  -0.6878  -0.6642
    -0.6269  -0.3275   0.8919   0.9018   1.0482   1.1242   1.1432   1.1926
     1.2362   1.2599   1.3065   1.3293   1.4119   1.4161   1.4761   1.5330
     1.5335   1.5448   1.5550   1.5863   1.5925   1.6160   1.6542   1.6569
     1.6834   1.7139   1.7422   1.7424   1.7985   1.8175   1.8341   1.8598

          k = 0.0000-0.5774 0.0000 (287882 PWs)   bands (ev):

   -72.5235 -56.1215 -56.1169 -56.1168 -56.1030 -56.1023 -56.1012 -56.0641
   -56.0548 -56.0547 -56.0230 -56.0096 -56.0095 -56.0065 -56.0025 -56.0024
   -55.9996 -44.0650 -43.9655 -43.9655 -32.3584 -32.3522 -32.3372 -32.3048
   -32.2957 -32.2692 -32.2683 -32.2592 -32.2407 -32.2222 -32.2178 -32.2122
   -32.2106 -32.2057 -32.2007 -32.1891 -32.1874 -32.1805 -32.1676 -32.1647
   -32.1511 -32.1491 -32.1442 -32.1369 -32.1356 -32.1332 -32.1327 -32.1245
   -32.1232 -32.1204 -32.1173 -32.1096 -32.0972 -32.0942 -32.0940 -32.0847
   -32.0793 -32.0787 -32.0719 -32.0678 -32.0655 -32.0603 -32.0329 -32.0297
   -32.0112 -31.9860 -31.9790 -31.9623 -14.6940 -14.5256 -14.3086 -14.2167
   -13.9767 -13.7206 -13.7186 -13.6941 -13.6934 -13.6816 -13.5825 -13.5474
   -13.5442 -13.5188 -13.4198 -13.3376 -13.3284 -13.3020 -13.2985 -13.2925
   -13.2788 -13.2660 -13.2562 -13.2169 -13.1502 -13.1434 -13.1415 -13.1160
   -13.0939 -13.0186 -12.9922 -12.9859  -6.1671  -5.9779  -5.9155  -5.8545
    -5.8204  -5.8061  -5.7662  -5.7010  -5.5569  -5.5064  -5.4705  -5.4269
    -5.4078  -5.4011  -5.3541  -5.3377  -5.3191  -5.2771  -5.2304  -5.2231
    -5.1798  -5.1603  -5.0368  -4.9086  -4.8572  -4.6345  -4.6244  -4.5939
    -4.5776  -4.5468  -4.5384  -4.5131  -4.5108  -4.4911  -4.4520  -4.4442
    -4.4356  -4.3997  -4.3738  -4.3715  -4.1805  -4.1346  -3.9754  -3.9731
    -3.8394  -3.7794  -3.6988  -3.6853  -3.6468  -3.6052  -3.6046  -3.5752
    -3.5751  -3.5493  -3.5057  -3.4812  -3.4424  -3.3788  -3.3609  -3.3581
    -3.2808  -3.2791  -3.2539  -3.2186  -3.1835  -3.1047  -3.0613  -3.0286
    -3.0067  -2.8123  -2.7615  -2.7319  -2.7115  -2.6965  -2.6839  -2.6469
    -2.6426  -2.6236  -2.6217  -2.6073  -2.5987  -2.5952  -2.5920  -2.5136
    -2.5075  -2.4133  -2.4041  -2.3680  -2.2721  -2.2370  -2.2013  -2.1914
    -2.1507  -2.0985  -2.0728  -1.9470  -1.9084  -1.8895  -1.8856  -1.8029
    -1.7989  -1.4838  -1.4261  -1.3489  -1.3280  -1.2409  -1.2335  -1.1537
    -1.0728  -1.0213  -1.0071  -0.9833  -0.9022  -0.7780  -0.7039  -0.6200
    -0.5785  -0.3329   0.8684   0.8815   1.0380   1.0977   1.1033   1.1834
     1.2377   1.2798   1.3105   1.3328   1.4015   1.4545   1.4762   1.4844
     1.5070   1.5215   1.5340   1.5504   1.5784   1.5878   1.6168   1.6674
     1.7017   1.7135   1.7311   1.7592   1.7683   1.7864   1.7886   1.8414

          k = 0.1667 0.2887 0.0000 (287748 PWs)   bands (ev):

   -72.5235 -56.1215 -56.1169 -56.1168 -56.1028 -56.1023 -56.1014 -56.0641
   -56.0547 -56.0547 -56.0230 -56.0096 -56.0096 -56.0065 -56.0024 -56.0024
   -55.9996 -44.0650 -43.9655 -43.9655 -32.3609 -32.3580 -32.3358 -32.2965
   -32.2869 -32.2817 -32.2680 -32.2533 -32.2437 -32.2186 -32.2162 -32.2123
   -32.2105 -32.2084 -32.1986 -32.1948 -32.1808 -32.1760 -32.1711 -32.1641
   -32.1512 -32.1498 -32.1425 -32.1395 -32.1374 -32.1338 -32.1324 -32.1285
   -32.1241 -32.1231 -32.1103 -32.1076 -32.0989 -32.0943 -32.0940 -32.0892
   -32.0789 -32.0786 -32.0721 -32.0655 -32.0652 -32.0609 -32.0488 -32.0180
   -32.0127 -31.9821 -31.9785 -31.9622 -14.7403 -14.4479 -14.3071 -14.1369
   -14.0403 -13.8923 -13.7717 -13.7494 -13.6741 -13.5849 -13.5836 -13.5183
   -13.4818 -13.4289 -13.4018 -13.3753 -13.3498 -13.3464 -13.3418 -13.2929
   -13.2461 -13.2169 -13.2086 -13.1920 -13.1753 -13.1557 -13.1483 -13.1399
   -13.0979 -13.0127 -13.0085 -12.9930  -6.1886  -6.0979  -6.0678  -6.0021
    -5.7606  -5.6379  -5.6344  -5.5744  -5.5352  -5.4945  -5.4697  -5.4277
    -5.3924  -5.3480  -5.3417  -5.3242  -5.2873  -5.2851  -5.2562  -5.2469
    -5.1645  -5.1464  -5.0021  -4.9577  -4.9455  -4.6848  -4.6330  -4.6319
    -4.5775  -4.5206  -4.5033  -4.4909  -4.4809  -4.4624  -4.4468  -4.4291
    -4.4255  -4.3861  -4.3341  -4.3044  -4.1129  -4.0741  -4.0082  -3.9788
    -3.9402  -3.8557  -3.8018  -3.7456  -3.7220  -3.7043  -3.6733  -3.5808
    -3.5514  -3.5294  -3.5111  -3.4805  -3.4454  -3.4233  -3.3648  -3.3276
    -3.2875  -3.2688  -3.2332  -3.1884  -3.1295  -3.1040  -3.0909  -3.0504
    -2.9776  -2.9375  -2.9339  -2.8647  -2.7942  -2.7296  -2.6917  -2.6792
    -2.6495  -2.6380  -2.5621  -2.5515  -2.5377  -2.4868  -2.4278  -2.4040
    -2.3974  -2.3379  -2.3267  -2.2778  -2.2564  -2.2181  -2.1722  -2.1605
    -2.1034  -2.0626  -2.0377  -2.0208  -1.9940  -1.9419  -1.9127  -1.8997
    -1.8200  -1.4347  -1.3819  -1.3224  -1.3040  -1.2303  -1.2040  -1.1781
    -1.1389  -1.1158  -1.0476  -0.9417  -0.9273  -0.7980  -0.7657  -0.6847
    -0.6157  -0.3249   0.8738   0.9366   1.0508   1.1318   1.1665   1.2021
     1.2352   1.2629   1.3060   1.3304   1.4113   1.4303   1.4806   1.5142
     1.5393   1.5581   1.5675   1.5886   1.6023   1.6193   1.6496   1.6898
     1.7050   1.7225   1.7347   1.7533   1.7725   1.7920   1.8298   1.8599

          k = 0.1667 0.4811 0.0000 (287831 PWs)   bands (ev):

   -72.5235 -56.1215 -56.1169 -56.1168 -56.1030 -56.1023 -56.1012 -56.0641
   -56.0548 -56.0547 -56.0230 -56.0096 -56.0095 -56.0065 -56.0025 -56.0024
   -55.9996 -44.0650 -43.9655 -43.9655 -32.3578 -32.3530 -32.3374 -32.3020
   -32.2937 -32.2820 -32.2665 -32.2499 -32.2405 -32.2224 -32.2190 -32.2131
   -32.2102 -32.2065 -32.2018 -32.1942 -32.1844 -32.1762 -32.1677 -32.1645
   -32.1512 -32.1491 -32.1449 -32.1378 -32.1357 -32.1328 -32.1320 -32.1247
   -32.1236 -32.1230 -32.1144 -32.1096 -32.0989 -32.0944 -32.0939 -32.0824
   -32.0792 -32.0788 -32.0719 -32.0679 -32.0655 -32.0608 -32.0363 -32.0242
   -32.0140 -31.9847 -31.9797 -31.9623 -14.6972 -14.5002 -14.3787 -14.1402
   -13.9810 -13.8326 -13.7149 -13.6874 -13.6591 -13.6261 -13.6058 -13.5732
   -13.4832 -13.4677 -13.4379 -13.3885 -13.3727 -13.3303 -13.3017 -13.2829
   -13.2744 -13.2375 -13.2100 -13.2052 -13.1657 -13.1587 -13.1543 -13.1120
   -13.0862 -13.0141 -13.0011 -12.9808  -6.1676  -5.9915  -5.9399  -5.8685
    -5.7759  -5.7447  -5.7224  -5.6607  -5.6105  -5.5658  -5.5381  -5.5084
    -5.4679  -5.4050  -5.3499  -5.3160  -5.2756  -5.2525  -5.2383  -5.1884
    -5.1098  -5.0402  -5.0084  -4.9624  -4.8033  -4.7588  -4.6510  -4.6357
    -4.6014  -4.5741  -4.5648  -4.5179  -4.4914  -4.4803  -4.4623  -4.4448
    -4.4082  -4.3935  -4.3777  -4.3621  -4.1900  -4.1630  -3.9265  -3.8782
    -3.8288  -3.7866  -3.6801  -3.6663  -3.6451  -3.6262  -3.6082  -3.5912
    -3.5563  -3.5141  -3.4789  -3.4488  -3.4147  -3.4053  -3.3538  -3.3188
    -3.3177  -3.2906  -3.2809  -3.2547  -3.2206  -3.1824  -3.1467  -3.0652
    -3.0049  -2.7923  -2.7736  -2.7433  -2.7146  -2.7059  -2.6708  -2.6507
    -2.6481  -2.6398  -2.6256  -2.5961  -2.5864  -2.5324  -2.5196  -2.4946
    -2.3993  -2.3898  -2.3582  -2.3323  -2.3136  -2.2831  -2.2576  -2.1888
    -2.1660  -2.0746  -2.0654  -1.9998  -1.9923  -1.9238  -1.8575  -1.8111
    -1.7874  -1.4534  -1.3741  -1.3431  -1.3104  -1.2432  -1.2147  -1.1807
    -1.1454  -1.1238  -0.9479  -0.8998  -0.8495  -0.8004  -0.7201  -0.7032
    -0.5179  -0.3329   0.8089   0.9392   1.0089   1.0783   1.1504   1.2094
     1.2349   1.2899   1.3145   1.3575   1.3812   1.4314   1.4510   1.4910
     1.5025   1.5219   1.5353   1.5565   1.5944   1.6006   1.6149   1.6652
     1.6708   1.7039   1.7197   1.7428   1.7525   1.7607   1.7860   1.8113

          k = 0.3333 0.5774 0.0000 (287970 PWs)   bands (ev):

   -72.5235 -56.1215 -56.1169 -56.1169 -56.1030 -56.1023 -56.1012 -56.0641
   -56.0548 -56.0547 -56.0230 -56.0096 -56.0095 -56.0065 -56.0025 -56.0025
   -55.9996 -44.0650 -43.9656 -43.9656 -32.3559 -32.3519 -32.3386 -32.2974
   -32.2970 -32.2903 -32.2653 -32.2430 -32.2388 -32.2268 -32.2179 -32.2161
   -32.2089 -32.2087 -32.2014 -32.1962 -32.1862 -32.1695 -32.1689 -32.1644
   -32.1511 -32.1490 -32.1475 -32.1362 -32.1361 -32.1329 -32.1306 -32.1250
   -32.1229 -32.1221 -32.1166 -32.1094 -32.1001 -32.0945 -32.0938 -32.0791
   -32.0791 -32.0778 -32.0718 -32.0699 -32.0655 -32.0612 -32.0306 -32.0226
   -32.0204 -31.9839 -31.9812 -31.9624 -14.6795 -14.4697 -14.4683 -14.1012
   -13.9134 -13.9041 -13.7459 -13.6585 -13.6557 -13.6350 -13.5316 -13.5237
   -13.4844 -13.4812 -13.4782 -13.4410 -13.3893 -13.3757 -13.2829 -13.2657
   -13.2586 -13.2291 -13.2176 -13.1807 -13.1791 -13.1727 -13.1684 -13.1030
   -13.0775 -13.0099 -13.0046 -12.9753  -6.1606  -5.9082  -5.9005  -5.7649
    -5.7533  -5.7478  -5.6925  -5.6915  -5.6882  -5.6718  -5.6321  -5.6249
    -5.5167  -5.4046  -5.3713  -5.3304  -5.2992  -5.2134  -5.1687  -5.0851
    -4.9829  -4.9764  -4.9117  -4.8944  -4.8808  -4.8724  -4.8144  -4.6792
    -4.6317  -4.5651  -4.5552  -4.5292  -4.5228  -4.5049  -4.4988  -4.4965
    -4.4412  -4.3940  -4.3787  -4.2000  -4.1825  -4.0782  -4.0749  -3.8223
    -3.8176  -3.6672  -3.6356  -3.6105  -3.6075  -3.5767  -3.5552  -3.5356
    -3.5341  -3.5005  -3.4986  -3.4893  -3.4672  -3.4419  -3.4143  -3.3499
    -3.3462  -3.2839  -3.2810  -3.2691  -3.1781  -3.1569  -3.1381  -3.0721
    -3.0491  -3.0418  -2.8026  -2.7063  -2.6935  -2.6720  -2.6719  -2.6682
    -2.6600  -2.5619  -2.5534  -2.5257  -2.5058  -2.4856  -2.4437  -2.4239
    -2.4223  -2.3997  -2.3771  -2.3642  -2.3599  -2.2833  -2.2690  -2.2444
    -2.2281  -2.2184  -2.2119  -1.9983  -1.9568  -1.9282  -1.8193  -1.7870
    -1.7569  -1.4287  -1.3789  -1.2742  -1.2704  -1.2626  -1.2393  -1.2143
    -1.1770  -1.1754  -0.8655  -0.8490  -0.8092  -0.7927  -0.7601  -0.7433
    -0.4639  -0.3357   0.7636   0.9582   0.9678   1.0762   1.1433   1.2264
     1.2563   1.3081   1.3359   1.3897   1.3973   1.4381   1.4391   1.4590
     1.4667   1.4777   1.5186   1.5226   1.5337   1.6066   1.6194   1.6525
     1.6708   1.6945   1.7002   1.7291   1.7395   1.7566   1.7769   1.7955

 ------ SPIN DOWN ----------


          k = 0.0000 0.0000 0.0000 (287679 PWs)   bands (ev):

   -68.1904 -56.1200 -56.1161 -56.1161 -56.1082 -56.1076 -56.1076 -56.0826
   -56.0734 -56.0734 -56.0204 -56.0097 -56.0097 -56.0046 -56.0025 -56.0025
   -55.9997 -39.8081 -39.6566 -39.6566 -32.3679 -32.3679 -32.3375 -32.2911
   -32.2911 -32.2813 -32.2813 -32.2612 -32.2478 -32.2304 -32.2250 -32.2077
   -32.2034 -32.2034 -32.1981 -32.1981 -32.1818 -32.1779 -32.1708 -32.1708
   -32.1640 -32.1640 -32.1511 -32.1511 -32.1476 -32.1459 -32.1448 -32.1448
   -32.1424 -32.1424 -32.1157 -32.1157 -32.1101 -32.1059 -32.0940 -32.0940
   -32.0781 -32.0781 -32.0721 -32.0613 -32.0609 -32.0608 -32.0608 -32.0153
   -32.0153 -31.9759 -31.9759 -31.9609 -14.7863 -14.3699 -14.0992 -14.0992
   -14.0650 -14.0475 -14.0475 -13.7937 -13.6512 -13.5080 -13.5080 -13.4916
   -13.4444 -13.4444 -13.4417 -13.3414 -13.3035 -13.3035 -13.2949 -13.2949
   -13.2638 -13.2638 -13.2504 -13.1883 -13.1637 -13.1526 -13.1526 -13.1279
   -13.1279 -13.0227 -13.0227 -13.0080  -6.1717  -6.1717  -6.1236  -6.0853
    -5.6488  -5.5013  -5.5013  -5.4766  -5.4766  -5.4314  -5.3982  -5.3558
    -5.3558  -5.3059  -5.2556  -5.2556  -5.2531  -5.2421  -5.2421  -5.1447
    -5.1374  -5.1374  -5.1234  -5.1191  -5.1191  -4.7434  -4.5720  -4.5720
    -4.4895  -4.4895  -4.4755  -4.4061  -4.4016  -4.3972  -4.3972  -4.3756
    -4.3681  -4.3681  -4.2540  -4.2540  -4.1073  -4.1073  -4.0773  -3.9449
    -3.9449  -3.8859  -3.7928  -3.7928  -3.7618  -3.7364  -3.7364  -3.6681
    -3.5765  -3.5765  -3.5458  -3.4831  -3.4831  -3.4722  -3.4600  -3.4183
    -3.4183  -2.9438  -2.8670  -2.8670  -2.8603  -2.8603  -2.7913  -2.7913
    -2.7265  -2.7265  -2.7106  -2.7017  -2.5366  -2.5125  -2.4799  -2.4799
    -2.4419  -2.4419  -2.4282  -2.3702  -2.3702  -2.3675  -2.3057  -2.3057
    -2.2973  -2.2137  -2.2092  -2.2092  -2.2061  -2.1132  -2.1132  -1.8758
    -1.8758  -1.8538  -1.8538  -1.7023  -1.3405  -1.3405  -1.2913  -1.2709
    -1.2709  -1.2401  -1.2122  -1.2122  -1.1879  -1.0841  -1.0841  -1.0451
    -0.8498  -0.8048  -0.8048  -0.6122   0.8203   0.9752   0.9752   1.1063
     1.1985   1.2006   1.2006   1.2508   1.2508   1.3759   1.3912   1.4272
     1.4272   1.5098   1.5098   1.5414   1.5730   1.5730   1.6046   1.6495
     1.6495   1.7017   1.7535   1.7535   1.8417   1.8417   1.8428   1.8686
     1.8950   1.8950   1.9400   1.9445   1.9446   1.9709   1.9709   2.0121

          k = 0.0000 0.1925 0.0000 (287730 PWs)   bands (ev):

   -68.1904 -56.1199 -56.1163 -56.1161 -56.1081 -56.1076 -56.1076 -56.0826
   -56.0734 -56.0734 -56.0204 -56.0097 -56.0096 -56.0046 -56.0025 -56.0025
   -55.9997 -39.8081 -39.6566 -39.6566 -32.3665 -32.3650 -32.3377 -32.2960
   -32.2960 -32.2830 -32.2787 -32.2590 -32.2486 -32.2250 -32.2238 -32.2118
   -32.2043 -32.2028 -32.1982 -32.1980 -32.1827 -32.1792 -32.1739 -32.1721
   -32.1641 -32.1636 -32.1491 -32.1481 -32.1480 -32.1475 -32.1461 -32.1429
   -32.1424 -32.1423 -32.1150 -32.1105 -32.1100 -32.1075 -32.0940 -32.0940
   -32.0783 -32.0782 -32.0720 -32.0629 -32.0612 -32.0608 -32.0556 -32.0169
   -32.0149 -31.9779 -31.9763 -31.9610 -14.7700 -14.4011 -14.2018 -14.1548
   -14.0586 -13.9662 -13.8968 -13.7810 -13.6594 -13.5503 -13.5218 -13.5107
   -13.4333 -13.4304 -13.4196 -13.3909 -13.3562 -13.3186 -13.3091 -13.2923
   -13.2573 -13.2084 -13.2047 -13.1968 -13.1915 -13.1608 -13.1522 -13.1347
   -13.1144 -13.0185 -13.0114 -13.0074  -6.1375  -6.1343  -6.0902  -6.0559
    -5.6662  -5.5462  -5.5338  -5.4889  -5.4619  -5.4393  -5.4070  -5.4044
    -5.3695  -5.3306  -5.3139  -5.3100  -5.2655  -5.2427  -5.2414  -5.2261
    -5.1927  -5.1380  -5.1375  -4.9316  -4.9157  -4.7901  -4.6382  -4.6133
    -4.5734  -4.4916  -4.4881  -4.4337  -4.4212  -4.3957  -4.3766  -4.3483
    -4.3239  -4.3153  -4.2735  -4.2477  -4.1909  -4.1644  -4.1207  -3.8815
    -3.8468  -3.8012  -3.7812  -3.7703  -3.7639  -3.7597  -3.7396  -3.6998
    -3.6594  -3.5942  -3.4863  -3.4409  -3.4315  -3.4046  -3.3703  -3.2106
    -3.1955  -3.0668  -3.0272  -2.9778  -2.9291  -2.8515  -2.8482  -2.8340
    -2.7612  -2.7284  -2.7108  -2.6486  -2.6106  -2.5998  -2.5059  -2.4818
    -2.4771  -2.4747  -2.4213  -2.3570  -2.3435  -2.3427  -2.3275  -2.2768
    -2.2299  -2.2151  -2.2140  -2.1149  -2.1143  -2.0478  -2.0386  -1.9878
    -1.9722  -1.8949  -1.8471  -1.7922  -1.4023  -1.3360  -1.3324  -1.3120
    -1.2546  -1.2236  -1.1746  -1.1653  -1.1145  -1.0923  -1.0767  -0.9943
    -0.8407  -0.7684  -0.7416  -0.6211   0.8077   0.9646   0.9652   1.0836
     1.1706   1.1886   1.2097   1.2406   1.2689   1.3362   1.3562   1.4215
     1.4218   1.5153   1.5206   1.5321   1.5727   1.5759   1.5998   1.6256
     1.6618   1.6879   1.7040   1.7085   1.7823   1.8085   1.8435   1.8538
     1.8604   1.8824   1.8920   1.9092   1.9172   1.9588   1.9816   2.0229

          k = 0.0000 0.3849 0.0000 (287830 PWs)   bands (ev):

   -68.1904 -56.1196 -56.1167 -56.1162 -56.1080 -56.1076 -56.1075 -56.0827
   -56.0734 -56.0734 -56.0204 -56.0096 -56.0096 -56.0047 -56.0026 -56.0025
   -55.9997 -39.8082 -39.6566 -39.6566 -32.3631 -32.3573 -32.3384 -32.3106
   -32.3031 -32.2788 -32.2760 -32.2588 -32.2471 -32.2239 -32.2217 -32.2142
   -32.2039 -32.2024 -32.1986 -32.1981 -32.1846 -32.1809 -32.1774 -32.1758
   -32.1642 -32.1623 -32.1528 -32.1492 -32.1488 -32.1460 -32.1427 -32.1425
   -32.1415 -32.1351 -32.1162 -32.1103 -32.1098 -32.1017 -32.0939 -32.0939
   -32.0787 -32.0783 -32.0716 -32.0657 -32.0612 -32.0608 -32.0446 -32.0219
   -32.0142 -31.9821 -31.9771 -31.9612 -14.7267 -14.4757 -14.2831 -14.2013
   -14.0011 -13.8443 -13.7691 -13.7213 -13.6672 -13.6165 -13.5655 -13.5426
   -13.5377 -13.4440 -13.3942 -13.3733 -13.3582 -13.3171 -13.3060 -13.2957
   -13.2581 -13.2501 -13.2449 -13.1876 -13.1560 -13.1512 -13.1419 -13.1378
   -13.1031 -13.0182 -12.9986 -12.9940  -6.0488  -6.0401  -5.9987  -5.9525
    -5.7309  -5.6895  -5.6693  -5.5519  -5.4827  -5.4326  -5.4322  -5.4249
    -5.4040  -5.4016  -5.3764  -5.3567  -5.2994  -5.2540  -5.2282  -5.2199
    -5.1629  -5.1520  -5.0722  -4.8605  -4.7141  -4.6895  -4.6403  -4.6338
    -4.6186  -4.5945  -4.5154  -4.5032  -4.4728  -4.4718  -4.4281  -4.3953
    -4.3606  -4.3407  -4.3239  -4.2964  -4.2067  -4.1740  -3.9197  -3.9125
    -3.7888  -3.7760  -3.7583  -3.7317  -3.7155  -3.6814  -3.6692  -3.6208
    -3.5820  -3.5272  -3.4919  -3.3530  -3.3505  -3.2952  -3.2924  -3.1520
    -3.1423  -3.1270  -3.0644  -2.9788  -2.9704  -2.8966  -2.8930  -2.8718
    -2.7846  -2.7211  -2.7198  -2.6978  -2.6838  -2.6101  -2.5797  -2.5646
    -2.5085  -2.4877  -2.4421  -2.3788  -2.3588  -2.3480  -2.3109  -2.3023
    -2.2697  -2.2547  -2.2521  -2.1506  -2.1225  -2.0291  -2.0124  -1.9723
    -1.9095  -1.8636  -1.8510  -1.8274  -1.4780  -1.3989  -1.3534  -1.3321
    -1.2549  -1.2198  -1.1643  -1.0870  -1.0737  -1.0497  -1.0366  -0.8745
    -0.8446  -0.6754  -0.6555  -0.6347   0.7889   0.9210   0.9223   1.0520
     1.1364   1.1465   1.2197   1.2312   1.2762   1.2992   1.3486   1.4068
     1.4113   1.4690   1.5262   1.5308   1.5551   1.5607   1.5882   1.5924
     1.6385   1.6479   1.6681   1.6840   1.7274   1.7324   1.7846   1.7996
     1.8185   1.8354   1.8501   1.9071   1.9219   1.9576   1.9847   1.9946

          k = 0.0000-0.5774 0.0000 (287882 PWs)   bands (ev):

   -68.1904 -56.1195 -56.1169 -56.1162 -56.1079 -56.1076 -56.1075 -56.0827
   -56.0734 -56.0734 -56.0204 -56.0096 -56.0096 -56.0047 -56.0026 -56.0025
   -55.9997 -39.8082 -39.6566 -39.6566 -32.3611 -32.3516 -32.3392 -32.3196
   -32.3060 -32.2750 -32.2744 -32.2628 -32.2418 -32.2286 -32.2250 -32.2095
   -32.2046 -32.2001 -32.1996 -32.1978 -32.1881 -32.1798 -32.1784 -32.1762
   -32.1643 -32.1615 -32.1568 -32.1496 -32.1493 -32.1462 -32.1426 -32.1426
   -32.1387 -32.1261 -32.1226 -32.1104 -32.1097 -32.0977 -32.0939 -32.0938
   -32.0789 -32.0784 -32.0715 -32.0673 -32.0612 -32.0608 -32.0354 -32.0280
   -32.0138 -31.9845 -31.9775 -31.9613 -14.6925 -14.5265 -14.3071 -14.2173
   -13.9709 -13.7207 -13.7193 -13.6978 -13.6948 -13.6821 -13.5827 -13.5496
   -13.5445 -13.5194 -13.4188 -13.3380 -13.3290 -13.3026 -13.2991 -13.2991
   -13.2796 -13.2665 -13.2571 -13.2174 -13.1504 -13.1441 -13.1418 -13.1169
   -13.0980 -13.0195 -12.9931 -12.9868  -5.9945  -5.9316  -5.8778  -5.8530
    -5.8232  -5.7866  -5.7701  -5.7056  -5.5064  -5.4775  -5.4576  -5.4223
    -5.4045  -5.4034  -5.3477  -5.3209  -5.3167  -5.2799  -5.2193  -5.2160
    -5.1794  -5.1602  -4.9140  -4.8836  -4.8402  -4.6363  -4.6131  -4.5895
    -4.5642  -4.5421  -4.5206  -4.5029  -4.5020  -4.4873  -4.4545  -4.4436
    -4.4313  -4.4011  -4.3712  -4.3708  -4.1800  -4.1298  -3.9551  -3.9427
    -3.7236  -3.7156  -3.6854  -3.6684  -3.6281  -3.5992  -3.5976  -3.5613
    -3.5602  -3.5396  -3.4908  -3.4352  -3.4310  -3.3632  -3.2794  -3.2476
    -3.1282  -3.0988  -3.0420  -3.0309  -2.8369  -2.8059  -2.7693  -2.7639
    -2.7230  -2.6931  -2.6702  -2.6700  -2.6491  -2.6463  -2.6361  -2.6114
    -2.6036  -2.6013  -2.5265  -2.5147  -2.4706  -2.4334  -2.4160  -2.3688
    -2.2593  -2.2193  -2.2001  -2.1545  -2.1239  -2.0742  -1.9592  -1.8972
    -1.8926  -1.8740  -1.8099  -1.8005  -1.4941  -1.4384  -1.3498  -1.3332
    -1.2566  -1.2427  -1.1724  -1.0743  -1.0337  -1.0155  -0.9928  -0.9146
    -0.7328  -0.7159  -0.6313  -0.5880   0.7819   0.8919   0.8933   1.0393
     1.1102   1.1120   1.2357   1.2381   1.2775   1.3018   1.3468   1.3969
     1.4459   1.4711   1.4738   1.5109   1.5266   1.5369   1.5721   1.5781
     1.5871   1.6529   1.6690   1.6973   1.7023   1.7466   1.7570   1.7764
     1.7791   1.8067   1.8290   1.9088   1.9262   1.9447   1.9633   1.9900

          k = 0.1667 0.2887 0.0000 (287748 PWs)   bands (ev):

   -68.1904 -56.1197 -56.1166 -56.1162 -56.1080 -56.1076 -56.1075 -56.0827
   -56.0734 -56.0734 -56.0204 -56.0096 -56.0096 -56.0047 -56.0025 -56.0025
   -55.9997 -39.8082 -39.6566 -39.6566 -32.3638 -32.3599 -32.3382 -32.3075
   -32.2961 -32.2898 -32.2725 -32.2562 -32.2480 -32.2255 -32.2192 -32.2154
   -32.2064 -32.2020 -32.1982 -32.1974 -32.1830 -32.1809 -32.1788 -32.1728
   -32.1644 -32.1626 -32.1520 -32.1490 -32.1486 -32.1461 -32.1427 -32.1427
   -32.1421 -32.1379 -32.1153 -32.1106 -32.1099 -32.1030 -32.0939 -32.0939
   -32.0786 -32.0783 -32.0717 -32.0649 -32.0612 -32.0609 -32.0478 -32.0197
   -32.0151 -31.9807 -31.9771 -31.9612 -14.7398 -14.4461 -14.3079 -14.1343
   -14.0408 -13.8906 -13.7724 -13.7517 -13.6723 -13.5868 -13.5849 -13.5181
   -13.4823 -13.4318 -13.4023 -13.3757 -13.3504 -13.3485 -13.3422 -13.2934
   -13.2482 -13.2177 -13.2114 -13.1927 -13.1757 -13.1560 -13.1489 -13.1406
   -13.1013 -13.0135 -13.0094 -12.9938  -6.0762  -6.0683  -6.0251  -5.9910
    -5.6980  -5.6005  -5.5948  -5.5713  -5.5324  -5.4974  -5.4495  -5.4187
    -5.3766  -5.3479  -5.3382  -5.3140  -5.2873  -5.2846  -5.2524  -5.2398
    -5.1596  -5.1379  -4.9766  -4.9517  -4.8359  -4.6665  -4.6343  -4.6233
    -4.5669  -4.5107  -4.4956  -4.4834  -4.4763  -4.4575  -4.4483  -4.4313
    -4.4285  -4.3836  -4.3326  -4.2961  -4.0810  -4.0678  -3.9850  -3.9637
    -3.9093  -3.7688  -3.7621  -3.7333  -3.7200  -3.7007  -3.6530  -3.5353
    -3.5245  -3.4995  -3.4879  -3.4715  -3.4461  -3.3928  -3.2112  -3.1711
    -3.1627  -3.1135  -3.0925  -3.0218  -2.9821  -2.9638  -2.8535  -2.8036
    -2.7360  -2.7299  -2.7081  -2.6868  -2.6625  -2.5769  -2.5609  -2.5447
    -2.5119  -2.4888  -2.4390  -2.4148  -2.4025  -2.3478  -2.3094  -2.2807
    -2.2587  -2.2008  -2.1872  -2.1076  -2.0680  -2.0426  -2.0067  -1.9931
    -1.9515  -1.9202  -1.9027  -1.8202  -1.4441  -1.3883  -1.3245  -1.3158
    -1.2468  -1.2127  -1.1827  -1.1525  -1.1310  -1.0606  -0.9448  -0.9292
    -0.8107  -0.7751  -0.6431  -0.6245   0.7917   0.8945   0.9794   1.0583
     1.1300   1.1748   1.2249   1.2279   1.2752   1.3024   1.3430   1.4070
     1.4238   1.4758   1.5164   1.5397   1.5640   1.5682   1.5846   1.6048
     1.6366   1.6681   1.6860   1.7086   1.7365   1.7457   1.7653   1.7933
     1.8203   1.8328   1.8519   1.8804   1.9324   1.9582   1.9920   2.0118

          k = 0.1667 0.4811 0.0000 (287831 PWs)   bands (ev):

   -68.1904 -56.1195 -56.1169 -56.1162 -56.1079 -56.1076 -56.1075 -56.0827
   -56.0734 -56.0734 -56.0204 -56.0096 -56.0096 -56.0047 -56.0026 -56.0025
   -55.9997 -39.8082 -39.6566 -39.6566 -32.3602 -32.3530 -32.3399 -32.3157
   -32.3044 -32.2903 -32.2674 -32.2551 -32.2433 -32.2296 -32.2241 -32.2114
   -32.2077 -32.2015 -32.1994 -32.1952 -32.1866 -32.1823 -32.1778 -32.1728
   -32.1643 -32.1616 -32.1577 -32.1495 -32.1493 -32.1464 -32.1429 -32.1423
   -32.1377 -32.1294 -32.1194 -32.1127 -32.1097 -32.0962 -32.0939 -32.0938
   -32.0789 -32.0785 -32.0715 -32.0673 -32.0612 -32.0610 -32.0369 -32.0247
   -32.0162 -31.9835 -31.9780 -31.9613 -14.6959 -14.5006 -14.3791 -14.1373
   -13.9788 -13.8317 -13.7168 -13.6887 -13.6605 -13.6267 -13.6070 -13.5739
   -13.4839 -13.4682 -13.4380 -13.3902 -13.3733 -13.3325 -13.3022 -13.2834
   -13.2757 -13.2407 -13.2108 -13.2057 -13.1660 -13.1593 -13.1552 -13.1127
   -13.0898 -13.0150 -13.0019 -12.9817  -5.9998  -5.9580  -5.9018  -5.8545
    -5.7720  -5.7378  -5.7100  -5.6404  -5.6078  -5.5667  -5.5272  -5.4946
    -5.4617  -5.3947  -5.3168  -5.3004  -5.2670  -5.2537  -5.2354  -5.1748
    -5.0987  -5.0255  -4.9850  -4.8651  -4.7861  -4.7469  -4.6402  -4.6261
    -4.6014  -4.5732  -4.5630  -4.5154  -4.4906  -4.4756  -4.4597  -4.4448
    -4.4006  -4.3890  -4.3775  -4.3608  -4.1722  -4.1558  -3.8877  -3.8545
    -3.7260  -3.7107  -3.6776  -3.6604  -3.6395  -3.6223  -3.5987  -3.5626
    -3.5501  -3.5023  -3.4405  -3.4141  -3.3580  -3.3341  -3.3105  -3.2951
    -3.2731  -3.2175  -3.1390  -3.0165  -2.8147  -2.8060  -2.7934  -2.7562
    -2.7257  -2.6977  -2.6721  -2.6638  -2.6520  -2.6426  -2.6237  -2.5929
    -2.5450  -2.5392  -2.5018  -2.4746  -2.4187  -2.4018  -2.3718  -2.3296
    -2.3175  -2.2892  -2.2286  -2.1788  -2.0828  -2.0767  -2.0062  -1.9946
    -1.8986  -1.8667  -1.8108  -1.7889  -1.4616  -1.3805  -1.3489  -1.3168
    -1.2563  -1.2260  -1.1963  -1.1565  -1.1352  -0.9581  -0.8974  -0.8578
    -0.7892  -0.7296  -0.6924  -0.5279   0.7768   0.8183   0.9786   1.0310
     1.0717   1.1784   1.2130   1.2409   1.2956   1.3146   1.3615   1.3762
     1.4275   1.4439   1.4840   1.5017   1.5202   1.5423   1.5870   1.5953
     1.6037   1.6468   1.6651   1.6734   1.6988   1.7270   1.7423   1.7548
     1.7790   1.7979   1.8137   1.8657   1.8794   1.9318   1.9780   2.0552

          k = 0.3333 0.5774 0.0000 (287970 PWs)   bands (ev):

   -68.1904 -56.1194 -56.1170 -56.1162 -56.1078 -56.1077 -56.1076 -56.0827
   -56.0734 -56.0734 -56.0204 -56.0096 -56.0096 -56.0047 -56.0026 -56.0025
   -55.9997 -39.8082 -39.6566 -39.6566 -32.3577 -32.3514 -32.3418 -32.3109
   -32.3098 -32.2975 -32.2641 -32.2493 -32.2423 -32.2309 -32.2286 -32.2107
   -32.2093 -32.2015 -32.2006 -32.1922 -32.1910 -32.1814 -32.1766 -32.1686
   -32.1642 -32.1629 -32.1611 -32.1496 -32.1482 -32.1480 -32.1431 -32.1422
   -32.1339 -32.1287 -32.1199 -32.1154 -32.1096 -32.0940 -32.0937 -32.0929
   -32.0788 -32.0787 -32.0714 -32.0683 -32.0612 -32.0612 -32.0317 -32.0234
   -32.0215 -31.9835 -31.9789 -31.9614 -14.6777 -14.4712 -14.4687 -14.0952
   -13.9139 -13.9044 -13.7456 -13.6591 -13.6559 -13.6390 -13.5320 -13.5244
   -13.4851 -13.4818 -13.4789 -13.4413 -13.3896 -13.3794 -13.2829 -13.2661
   -13.2589 -13.2340 -13.2180 -13.1809 -13.1800 -13.1733 -13.1690 -13.1038
   -13.0807 -13.0107 -13.0055 -12.9762  -5.9755  -5.8557  -5.8471  -5.7637
    -5.7495  -5.7420  -5.6951  -5.6940  -5.6832  -5.6706  -5.6389  -5.6277
    -5.5139  -5.3848  -5.3293  -5.3222  -5.2590  -5.2107  -5.1703  -5.0606
    -4.9383  -4.9279  -4.9025  -4.8752  -4.8631  -4.8613  -4.7904  -4.6762
    -4.6329  -4.5597  -4.5554  -4.5306  -4.5200  -4.5066  -4.4985  -4.4965
    -4.4423  -4.3888  -4.3798  -4.1945  -4.1480  -4.0756  -4.0467  -3.7152
    -3.7119  -3.6649  -3.6314  -3.6044  -3.6013  -3.5772  -3.5324  -3.5240
    -3.5178  -3.5032  -3.4910  -3.4753  -3.4121  -3.3895  -3.3857  -3.2015
    -3.1836  -3.1746  -3.1660  -3.1261  -3.1227  -2.8415  -2.7301  -2.7145
    -2.7137  -2.6945  -2.6897  -2.6683  -2.5666  -2.5599  -2.5542  -2.5255
    -2.5100  -2.4903  -2.4786  -2.4275  -2.4181  -2.4109  -2.3826  -2.3750
    -2.3472  -2.2865  -2.2741  -2.2550  -2.2488  -2.2206  -2.0076  -1.9609
    -1.9009  -1.8290  -1.7806  -1.7585  -1.4343  -1.3810  -1.2847  -1.2763
    -1.2729  -1.2439  -1.2366  -1.1926  -1.1883  -0.8786  -0.8265  -0.8182
    -0.7710  -0.7669  -0.7640  -0.4739   0.7682   0.7683   1.0017   1.0068
     1.0673   1.1715   1.2293   1.2616   1.3040   1.3263   1.3788   1.3870
     1.4289   1.4326   1.4568   1.4710   1.4793   1.5156   1.5522   1.5984
     1.6089   1.6231   1.6626   1.6764   1.6943   1.7098   1.7250   1.7414
     1.7694   1.7930   1.7936   1.8008   1.9109   1.9164   1.9336   2.1307

     the Fermi energy is    -1.0763 ev

!    total energy              =  -11657.71173613 Ry

     total all-electron energy =   -279870.121190 Ry
     estimated scf accuracy    <       0.00000006 Ry
     smearing contrib. (-TS)   =      -0.00772978 Ry
     internal energy E=F+TS    =  -11657.70400635 Ry

     The total energy is F=E-TS. E is the sum of the following terms:
     one-electron contribution =  -17771.71131545 Ry
     hartree contribution      =    8924.20845000 Ry
     xc contribution           =    -525.74179499 Ry
     ewald contribution        =    6712.42567846 Ry
     Hubbard energy            =       0.02689613 Ry
     one-center paw contrib.   =   -8996.91192051 Ry

     total magnetization       =     4.80 Bohr mag/cell
     absolute magnetization    =     5.60 Bohr mag/cell

     convergence has been achieved in  19 iterations

     Writing output data file ./tmp/adatom.save/
 
     init_run     :     66.45s CPU     67.91s WALL (       1 calls)
     electrons    :   1536.01s CPU   1553.75s WALL (       1 calls)

     Called by init_run:
     wfcinit      :     31.63s CPU     32.26s WALL (       1 calls)
     potinit      :     10.08s CPU     10.48s WALL (       1 calls)
     hinit0       :     16.68s CPU     16.73s WALL (       1 calls)

     Called by electrons:
     c_bands      :   1123.18s CPU   1127.68s WALL (      20 calls)
     sum_band     :    246.02s CPU    252.26s WALL (      20 calls)
     v_of_rho     :     26.95s CPU     27.53s WALL (      20 calls)
     newd         :     31.97s CPU     37.52s WALL (      20 calls)
     PAW_pot      :     14.79s CPU     15.06s WALL (      20 calls)
     mix_rho      :     94.82s CPU     95.52s WALL (      20 calls)

     Called by c_bands:
     init_us_2    :      9.92s CPU      9.96s WALL (     588 calls)
     cegterg      :   1089.72s CPU   1093.95s WALL (     281 calls)

     Called by *egterg:
     cdiaghg      :     93.68s CPU     94.21s WALL (    1734 calls)
     h_psi        :    613.84s CPU    616.98s WALL (    1762 calls)
     s_psi        :     63.97s CPU     64.08s WALL (    1776 calls)
     g_psi        :      2.02s CPU      2.03s WALL (    1467 calls)

     Called by h_psi:
     h_psi:calbec :     66.94s CPU     67.07s WALL (    1762 calls)
     vloc_psi     :    469.22s CPU    471.87s WALL (    1762 calls)
     add_vuspsi   :     62.64s CPU     62.76s WALL (    1762 calls)
     vhpsi        :      9.67s CPU      9.70s WALL (    1762 calls)

     General routines
     calbec       :    103.79s CPU    103.98s WALL (    4098 calls)
     fft          :     11.69s CPU     11.81s WALL (     496 calls)
     ffts         :     54.17s CPU     54.42s WALL (   15330 calls)
     fftw         :    526.20s CPU    529.02s WALL (  384878 calls)
     interpolate  :      1.01s CPU      1.02s WALL (      40 calls)
     davcio       :      0.00s CPU      0.00s WALL (      14 calls)
 
     Parallel routines

     Hubbard U routines
     new_ns       :      3.56s CPU      3.65s WALL (      20 calls)
     vhpsi        :      9.67s CPU      9.70s WALL (    1762 calls)
 
     PWSCF        :  26m57.57s CPU  27m24.82s WALL

 
   This run was terminated on:  17:20:34  11Jul2023            

=------------------------------------------------------------------------------=
   JOB DONE.
=------------------------------------------------------------------------------=
