 
             +---------------------------------------------------+
             |                                                   |
             |                   WANNIER90                       |
             |                                                   |
             +---------------------------------------------------+
             |                                                   |
             |        Welcome to the Maximally-Localized         |
             |        Generalized Wannier Functions code         |
             |            http://www.wannier.org                 |
             |                                                   |
             |                                                   |
             |  Wannier90 Developer Group:                       |
             |    Giovanni Pizzi    (EPFL)                       |
             |    Valerio Vitale    (Cambridge)                  |
             |    David Vanderbilt  (Rutgers University)         |
             |    Nicola Marzari    (EPFL)                       |
             |    Ivo Souza         (Universidad del Pais Vasco) |
             |    Arash A. Mostofi  (Imperial College London)    |
             |    Jonathan R. Yates (University of Oxford)       |
             |                                                   |
             |  For the full list of Wannier90 3.x authors,      |
             |  please check the code documentation and the      |
             |  README on the GitHub page of the code            |
             |                                                   |
             |                                                   |
             |  Please cite                                      |
             |                                                   |
             |  [ref] "Wannier90 as a community code:            |
             |        new features and applications",            |
             |        G. Pizzi et al., J. Phys. Cond. Matt. 32,  |
             |        165902 (2020).                             |
             |        http://doi.org/10.1088/1361-648X/ab51ff    |
             |                                                   |
             |  in any publications arising from the use of      |
             |  this code. For the method please cite            |
             |                                                   |
             |  [ref] "Maximally Localized Generalised Wannier   |
             |         Functions for Composite Energy Bands"     |
             |         N. Marzari and D. Vanderbilt              |
             |         Phys. Rev. B 56 12847 (1997)              |
             |                                                   |
             |  [ref] "Maximally Localized Wannier Functions     |
             |         for Entangled Energy Bands"               |
             |         I. Souza, N. Marzari and D. Vanderbilt    |
             |         Phys. Rev. B 65 035109 (2001)             |
             |                                                   |
             |                                                   |
             | Copyright (c) 1996-2020                           |
             |        The Wannier90 Developer Group and          |
             |        individual contributors                    |
             |                                                   |
             |      Release: 3.1.0        5th March    2020      |
             |                                                   |
             | This program is free software; you can            |
             | redistribute it and/or modify it under the terms  |
             | of the GNU General Public License as published by |
             | the Free Software Foundation; either version 2 of |
             | the License, or (at your option) any later version|
             |                                                   |
             | This program is distributed in the hope that it   |
             | will be useful, but WITHOUT ANY WARRANTY; without |
             | even the implied warranty of MERCHANTABILITY or   |
             | FITNESS FOR A PARTICULAR PURPOSE. See the GNU     |
             | General Public License for more details.          |
             |                                                   |
             | You should have received a copy of the GNU General|
             | Public License along with this program; if not,   |
             | write to the Free Software Foundation, Inc.,      |
             | 675 Mass Ave, Cambridge, MA 02139, USA.           |
             |                                                   |
             +---------------------------------------------------+
             |    Execution started on 17Jul2023 at 14:50:02     |
             +---------------------------------------------------+
 
 ******************************************************************************
 * -> Using CODATA 2006 constant values                                       *
 *    (http://physics.nist.gov/cuu/Constants/index.html)                      *
 * -> Using Bohr value from CODATA                                            *
 ******************************************************************************
 

 Running in parallel on  80 CPUs

 
                                    ------
                                    SYSTEM
                                    ------
 
                              Lattice Vectors (Ang)
                    a_1    13.881268   0.000000   0.000000
                    a_2    -6.940634  12.021531   0.000000
                    a_3     0.000000   0.000000  21.390217
 
                   Unit Cell Volume:    3569.47318  (Ang^3)
 
                        Reciprocal-Space Vectors (Ang^-1)
                    b_1     0.452638   0.261330   0.000000
                    b_2     0.000000   0.522661   0.000000
                    b_3     0.000000   0.000000   0.293741
  
 *----------------------------------------------------------------------------*
 |   Site       Fractional Coordinate          Cartesian Coordinate (Ang)     |
 +----------------------------------------------------------------------------+
 | Cr   1   0.50000   0.50000   0.07891   |    3.47032   6.01077   1.68784    |
 | Nb   1   0.00001  -0.00001   0.07905   |    0.00018  -0.00010   1.69083    |
 | Nb   2   0.24956  -0.00087   0.07900   |    3.47032  -0.01048   1.68992    |
 | Nb   3  -0.00454   0.24773   0.07901   |   -1.78244   2.97809   1.69007    |
 | Nb   4   0.24833   0.24919   0.07894   |    1.71756   2.99567   1.68844    |
 | Nb   5   0.49998  -0.00001   0.07905   |    6.94046  -0.00010   1.69083    |
 | Nb   6   0.50086   0.24919   0.07894   |    5.22308   2.99567   1.68844    |
 | Nb   7   0.24833   0.49914   0.07894   |   -0.01722   6.00038   1.68844    |
 | Nb   8   0.00001   0.50002   0.07905   |   -3.47032   6.01097   1.69083    |
 | Nb   9   0.75227   0.00454   0.07901   |   10.41095   0.05459   1.69007    |
 | Nb  10   0.75227   0.24773   0.07901   |    8.72307   2.97809   1.69007    |
 | Nb  11   0.75081   0.49914   0.07894   |    6.95785   6.00038   1.68844    |
 | Nb  12   0.75081   0.75167   0.07894   |    5.20509   9.03625   1.68844    |
 | Nb  13   0.50086   0.75167   0.07894   |    1.73554   9.03625   1.68844    |
 | Nb  14   0.24956   0.75044   0.07900   |   -1.74423   9.02139   1.68992    |
 | Nb  15   0.00087   0.75044   0.07900   |   -5.19640   9.02139   1.68992    |
 | Se   1   0.16703   0.08312   0.00028   |    1.74164   0.99924   0.00596    |
 | Se   2   0.16712   0.08322   0.15779   |    1.74219   1.00048   3.37522    |
 | Se   3   0.41609   0.08312   0.00028   |    5.19900   0.99924   0.00596    |
 | Se   4   0.41611   0.08322   0.15779   |    5.19844   1.00048   3.37522    |
 | Se   5   0.16657   0.33328   0.00076   |   -0.00101   4.00659   0.01620    |
 | Se   6   0.16664   0.33332   0.15720   |   -0.00027   4.00702   3.36259    |
 | Se   7   0.41923   0.33846   0.00313   |    3.47032   4.06881   0.06688    |
 | Se   8   0.41920   0.33840   0.15476   |    3.47032   4.06813   3.31035    |
 | Se   9   0.66602   0.08301  -0.00016   |    8.66903   0.99789  -0.00348    |
 | Se  10   0.66603   0.08301   0.15830   |    8.66913   0.99795   3.38612    |
 | Se  11   0.66672   0.33328   0.00076   |    6.94165   4.00659   0.01620    |
 | Se  12   0.66668   0.33332   0.15720   |    6.94090   4.00702   3.36259    |
 | Se  13   0.66154   0.58077   0.00313   |    5.15210   6.98175   0.06688    |
 | Se  14   0.66160   0.58080   0.15476   |    5.15269   6.98208   3.31035    |
 | Se  15   0.41923   0.58077   0.00313   |    1.78853   6.98175   0.06688    |
 | Se  16   0.41920   0.58080   0.15476   |    1.78795   6.98208   3.31035    |
 | Se  17   0.16703   0.58391   0.00028   |   -1.73413   7.01945   0.00596    |
 | Se  18   0.16712   0.58389   0.15779   |   -1.73277   7.01931   3.37522    |
 | Se  19   0.91699   0.08301  -0.00016   |   12.15288   0.99789  -0.00348    |
 | Se  20   0.91699   0.08301   0.15830   |   12.15277   0.99795   3.38612    |
 | Se  21   0.91699   0.33398  -0.00016   |   10.41095   4.01499  -0.00348    |
 | Se  22   0.91699   0.33397   0.15830   |   10.41095   4.01487   3.38612    |
 | Se  23   0.91688   0.58391   0.00028   |    8.67477   7.01945   0.00596    |
 | Se  24   0.91678   0.58389   0.15779   |    8.67341   7.01931   3.37522    |
 | Se  25   0.91688   0.83297   0.00028   |    6.94609  10.01361   0.00596    |
 | Se  26   0.91678   0.83288   0.15779   |    6.94529  10.01250   3.37522    |
 | Se  27   0.66672   0.83343   0.00076   |    3.47032  10.01911   0.01620    |
 | Se  28   0.66668   0.83336   0.15720   |    3.47032  10.01825   3.36259    |
 | Se  29   0.41609   0.83297   0.00028   |   -0.00545  10.01361   0.00596    |
 | Se  30   0.41611   0.83288   0.15779   |   -0.00465  10.01250   3.37522    |
 | Se  31   0.16667   0.83333  -0.00009   |   -3.47032  10.01794  -0.00183    |
 | Se  32   0.16667   0.83333   0.15819   |   -3.47032  10.01794   3.38372    |
 *----------------------------------------------------------------------------*
                                -----------
                                PROJECTIONS
                                -----------
  
 +----------------------------------------------------------------------------+
 |     Frac. Coord.   l mr  r        z-axis               x-axis          Z/a |
 +----------------------------------------------------------------------------+
 |  0.50  0.50  0.08  2  1  1  0.000  0.000  1.000  1.000  0.000  0.000   1.0 |
 |  0.50  0.50  0.08  2  2  1  0.000  0.000  1.000  1.000  0.000  0.000   1.0 |
 |  0.50  0.50  0.08  2  3  1  0.000  0.000  1.000  1.000  0.000  0.000   1.0 |
 |  0.50  0.50  0.08  2  4  1  0.000  0.000  1.000  1.000  0.000  0.000   1.0 |
 |  0.50  0.50  0.08  2  5  1  0.000  0.000  1.000  1.000  0.000  0.000   1.0 |
 |  0.00 -0.00  0.08  2  1  1  0.000  0.000  1.000  1.000  0.000  0.000   1.0 |
 |  0.00 -0.00  0.08  2  2  1  0.000  0.000  1.000  1.000  0.000  0.000   1.0 |
 |  0.00 -0.00  0.08  2  3  1  0.000  0.000  1.000  1.000  0.000  0.000   1.0 |
 |  0.00 -0.00  0.08  2  4  1  0.000  0.000  1.000  1.000  0.000  0.000   1.0 |
 |  0.00 -0.00  0.08  2  5  1  0.000  0.000  1.000  1.000  0.000  0.000   1.0 |
 |  0.25 -0.00  0.08  2  1  1  0.000  0.000  1.000  1.000  0.000  0.000   1.0 |
 |  0.25 -0.00  0.08  2  2  1  0.000  0.000  1.000  1.000  0.000  0.000   1.0 |
 |  0.25 -0.00  0.08  2  3  1  0.000  0.000  1.000  1.000  0.000  0.000   1.0 |
 |  0.25 -0.00  0.08  2  4  1  0.000  0.000  1.000  1.000  0.000  0.000   1.0 |
 |  0.25 -0.00  0.08  2  5  1  0.000  0.000  1.000  1.000  0.000  0.000   1.0 |
 | -0.00  0.25  0.08  2  1  1  0.000  0.000  1.000  1.000  0.000  0.000   1.0 |
 | -0.00  0.25  0.08  2  2  1  0.000  0.000  1.000  1.000  0.000  0.000   1.0 |
 | -0.00  0.25  0.08  2  3  1  0.000  0.000  1.000  1.000  0.000  0.000   1.0 |
 | -0.00  0.25  0.08  2  4  1  0.000  0.000  1.000  1.000  0.000  0.000   1.0 |
 | -0.00  0.25  0.08  2  5  1  0.000  0.000  1.000  1.000  0.000  0.000   1.0 |
 |  0.25  0.25  0.08  2  1  1  0.000  0.000  1.000  1.000  0.000  0.000   1.0 |
 |  0.25  0.25  0.08  2  2  1  0.000  0.000  1.000  1.000  0.000  0.000   1.0 |
 |  0.25  0.25  0.08  2  3  1  0.000  0.000  1.000  1.000  0.000  0.000   1.0 |
 |  0.25  0.25  0.08  2  4  1  0.000  0.000  1.000  1.000  0.000  0.000   1.0 |
 |  0.25  0.25  0.08  2  5  1  0.000  0.000  1.000  1.000  0.000  0.000   1.0 |
 |  0.50 -0.00  0.08  2  1  1  0.000  0.000  1.000  1.000  0.000  0.000   1.0 |
 |  0.50 -0.00  0.08  2  2  1  0.000  0.000  1.000  1.000  0.000  0.000   1.0 |
 |  0.50 -0.00  0.08  2  3  1  0.000  0.000  1.000  1.000  0.000  0.000   1.0 |
 |  0.50 -0.00  0.08  2  4  1  0.000  0.000  1.000  1.000  0.000  0.000   1.0 |
 |  0.50 -0.00  0.08  2  5  1  0.000  0.000  1.000  1.000  0.000  0.000   1.0 |
 |  0.50  0.25  0.08  2  1  1  0.000  0.000  1.000  1.000  0.000  0.000   1.0 |
 |  0.50  0.25  0.08  2  2  1  0.000  0.000  1.000  1.000  0.000  0.000   1.0 |
 |  0.50  0.25  0.08  2  3  1  0.000  0.000  1.000  1.000  0.000  0.000   1.0 |
 |  0.50  0.25  0.08  2  4  1  0.000  0.000  1.000  1.000  0.000  0.000   1.0 |
 |  0.50  0.25  0.08  2  5  1  0.000  0.000  1.000  1.000  0.000  0.000   1.0 |
 |  0.25  0.50  0.08  2  1  1  0.000  0.000  1.000  1.000  0.000  0.000   1.0 |
 |  0.25  0.50  0.08  2  2  1  0.000  0.000  1.000  1.000  0.000  0.000   1.0 |
 |  0.25  0.50  0.08  2  3  1  0.000  0.000  1.000  1.000  0.000  0.000   1.0 |
 |  0.25  0.50  0.08  2  4  1  0.000  0.000  1.000  1.000  0.000  0.000   1.0 |
 |  0.25  0.50  0.08  2  5  1  0.000  0.000  1.000  1.000  0.000  0.000   1.0 |
 |  0.00  0.50  0.08  2  1  1  0.000  0.000  1.000  1.000  0.000  0.000   1.0 |
 |  0.00  0.50  0.08  2  2  1  0.000  0.000  1.000  1.000  0.000  0.000   1.0 |
 |  0.00  0.50  0.08  2  3  1  0.000  0.000  1.000  1.000  0.000  0.000   1.0 |
 |  0.00  0.50  0.08  2  4  1  0.000  0.000  1.000  1.000  0.000  0.000   1.0 |
 |  0.00  0.50  0.08  2  5  1  0.000  0.000  1.000  1.000  0.000  0.000   1.0 |
 |  0.75  0.00  0.08  2  1  1  0.000  0.000  1.000  1.000  0.000  0.000   1.0 |
 |  0.75  0.00  0.08  2  2  1  0.000  0.000  1.000  1.000  0.000  0.000   1.0 |
 |  0.75  0.00  0.08  2  3  1  0.000  0.000  1.000  1.000  0.000  0.000   1.0 |
 |  0.75  0.00  0.08  2  4  1  0.000  0.000  1.000  1.000  0.000  0.000   1.0 |
 |  0.75  0.00  0.08  2  5  1  0.000  0.000  1.000  1.000  0.000  0.000   1.0 |
 |  0.75  0.25  0.08  2  1  1  0.000  0.000  1.000  1.000  0.000  0.000   1.0 |
 |  0.75  0.25  0.08  2  2  1  0.000  0.000  1.000  1.000  0.000  0.000   1.0 |
 |  0.75  0.25  0.08  2  3  1  0.000  0.000  1.000  1.000  0.000  0.000   1.0 |
 |  0.75  0.25  0.08  2  4  1  0.000  0.000  1.000  1.000  0.000  0.000   1.0 |
 |  0.75  0.25  0.08  2  5  1  0.000  0.000  1.000  1.000  0.000  0.000   1.0 |
 |  0.75  0.50  0.08  2  1  1  0.000  0.000  1.000  1.000  0.000  0.000   1.0 |
 |  0.75  0.50  0.08  2  2  1  0.000  0.000  1.000  1.000  0.000  0.000   1.0 |
 |  0.75  0.50  0.08  2  3  1  0.000  0.000  1.000  1.000  0.000  0.000   1.0 |
 |  0.75  0.50  0.08  2  4  1  0.000  0.000  1.000  1.000  0.000  0.000   1.0 |
 |  0.75  0.50  0.08  2  5  1  0.000  0.000  1.000  1.000  0.000  0.000   1.0 |
 |  0.75  0.75  0.08  2  1  1  0.000  0.000  1.000  1.000  0.000  0.000   1.0 |
 |  0.75  0.75  0.08  2  2  1  0.000  0.000  1.000  1.000  0.000  0.000   1.0 |
 |  0.75  0.75  0.08  2  3  1  0.000  0.000  1.000  1.000  0.000  0.000   1.0 |
 |  0.75  0.75  0.08  2  4  1  0.000  0.000  1.000  1.000  0.000  0.000   1.0 |
 |  0.75  0.75  0.08  2  5  1  0.000  0.000  1.000  1.000  0.000  0.000   1.0 |
 |  0.50  0.75  0.08  2  1  1  0.000  0.000  1.000  1.000  0.000  0.000   1.0 |
 |  0.50  0.75  0.08  2  2  1  0.000  0.000  1.000  1.000  0.000  0.000   1.0 |
 |  0.50  0.75  0.08  2  3  1  0.000  0.000  1.000  1.000  0.000  0.000   1.0 |
 |  0.50  0.75  0.08  2  4  1  0.000  0.000  1.000  1.000  0.000  0.000   1.0 |
 |  0.50  0.75  0.08  2  5  1  0.000  0.000  1.000  1.000  0.000  0.000   1.0 |
 |  0.25  0.75  0.08  2  1  1  0.000  0.000  1.000  1.000  0.000  0.000   1.0 |
 |  0.25  0.75  0.08  2  2  1  0.000  0.000  1.000  1.000  0.000  0.000   1.0 |
 |  0.25  0.75  0.08  2  3  1  0.000  0.000  1.000  1.000  0.000  0.000   1.0 |
 |  0.25  0.75  0.08  2  4  1  0.000  0.000  1.000  1.000  0.000  0.000   1.0 |
 |  0.25  0.75  0.08  2  5  1  0.000  0.000  1.000  1.000  0.000  0.000   1.0 |
 |  0.00  0.75  0.08  2  1  1  0.000  0.000  1.000  1.000  0.000  0.000   1.0 |
 |  0.00  0.75  0.08  2  2  1  0.000  0.000  1.000  1.000  0.000  0.000   1.0 |
 |  0.00  0.75  0.08  2  3  1  0.000  0.000  1.000  1.000  0.000  0.000   1.0 |
 |  0.00  0.75  0.08  2  4  1  0.000  0.000  1.000  1.000  0.000  0.000   1.0 |
 |  0.00  0.75  0.08  2  5  1  0.000  0.000  1.000  1.000  0.000  0.000   1.0 |
 |  0.17  0.08  0.00  1  1  1  0.000  0.000  1.000  1.000  0.000  0.000   1.0 |
 |  0.17  0.08  0.00  1  2  1  0.000  0.000  1.000  1.000  0.000  0.000   1.0 |
 |  0.17  0.08  0.00  1  3  1  0.000  0.000  1.000  1.000  0.000  0.000   1.0 |
 |  0.17  0.08  0.16  1  1  1  0.000  0.000  1.000  1.000  0.000  0.000   1.0 |
 |  0.17  0.08  0.16  1  2  1  0.000  0.000  1.000  1.000  0.000  0.000   1.0 |
 |  0.17  0.08  0.16  1  3  1  0.000  0.000  1.000  1.000  0.000  0.000   1.0 |
 |  0.42  0.08  0.00  1  1  1  0.000  0.000  1.000  1.000  0.000  0.000   1.0 |
 |  0.42  0.08  0.00  1  2  1  0.000  0.000  1.000  1.000  0.000  0.000   1.0 |
 |  0.42  0.08  0.00  1  3  1  0.000  0.000  1.000  1.000  0.000  0.000   1.0 |
 |  0.42  0.08  0.16  1  1  1  0.000  0.000  1.000  1.000  0.000  0.000   1.0 |
 |  0.42  0.08  0.16  1  2  1  0.000  0.000  1.000  1.000  0.000  0.000   1.0 |
 |  0.42  0.08  0.16  1  3  1  0.000  0.000  1.000  1.000  0.000  0.000   1.0 |
 |  0.17  0.33  0.00  1  1  1  0.000  0.000  1.000  1.000  0.000  0.000   1.0 |
 |  0.17  0.33  0.00  1  2  1  0.000  0.000  1.000  1.000  0.000  0.000   1.0 |
 |  0.17  0.33  0.00  1  3  1  0.000  0.000  1.000  1.000  0.000  0.000   1.0 |
 |  0.17  0.33  0.16  1  1  1  0.000  0.000  1.000  1.000  0.000  0.000   1.0 |
 |  0.17  0.33  0.16  1  2  1  0.000  0.000  1.000  1.000  0.000  0.000   1.0 |
 |  0.17  0.33  0.16  1  3  1  0.000  0.000  1.000  1.000  0.000  0.000   1.0 |
 |  0.42  0.34  0.00  1  1  1  0.000  0.000  1.000  1.000  0.000  0.000   1.0 |
 |  0.42  0.34  0.00  1  2  1  0.000  0.000  1.000  1.000  0.000  0.000   1.0 |
 |  0.42  0.34  0.00  1  3  1  0.000  0.000  1.000  1.000  0.000  0.000   1.0 |
 |  0.42  0.34  0.15  1  1  1  0.000  0.000  1.000  1.000  0.000  0.000   1.0 |
 |  0.42  0.34  0.15  1  2  1  0.000  0.000  1.000  1.000  0.000  0.000   1.0 |
 |  0.42  0.34  0.15  1  3  1  0.000  0.000  1.000  1.000  0.000  0.000   1.0 |
 |  0.67  0.08 -0.00  1  1  1  0.000  0.000  1.000  1.000  0.000  0.000   1.0 |
 |  0.67  0.08 -0.00  1  2  1  0.000  0.000  1.000  1.000  0.000  0.000   1.0 |
 |  0.67  0.08 -0.00  1  3  1  0.000  0.000  1.000  1.000  0.000  0.000   1.0 |
 |  0.67  0.08  0.16  1  1  1  0.000  0.000  1.000  1.000  0.000  0.000   1.0 |
 |  0.67  0.08  0.16  1  2  1  0.000  0.000  1.000  1.000  0.000  0.000   1.0 |
 |  0.67  0.08  0.16  1  3  1  0.000  0.000  1.000  1.000  0.000  0.000   1.0 |
 |  0.67  0.33  0.00  1  1  1  0.000  0.000  1.000  1.000  0.000  0.000   1.0 |
 |  0.67  0.33  0.00  1  2  1  0.000  0.000  1.000  1.000  0.000  0.000   1.0 |
 |  0.67  0.33  0.00  1  3  1  0.000  0.000  1.000  1.000  0.000  0.000   1.0 |
 |  0.67  0.33  0.16  1  1  1  0.000  0.000  1.000  1.000  0.000  0.000   1.0 |
 |  0.67  0.33  0.16  1  2  1  0.000  0.000  1.000  1.000  0.000  0.000   1.0 |
 |  0.67  0.33  0.16  1  3  1  0.000  0.000  1.000  1.000  0.000  0.000   1.0 |
 |  0.66  0.58  0.00  1  1  1  0.000  0.000  1.000  1.000  0.000  0.000   1.0 |
 |  0.66  0.58  0.00  1  2  1  0.000  0.000  1.000  1.000  0.000  0.000   1.0 |
 |  0.66  0.58  0.00  1  3  1  0.000  0.000  1.000  1.000  0.000  0.000   1.0 |
 |  0.66  0.58  0.15  1  1  1  0.000  0.000  1.000  1.000  0.000  0.000   1.0 |
 |  0.66  0.58  0.15  1  2  1  0.000  0.000  1.000  1.000  0.000  0.000   1.0 |
 |  0.66  0.58  0.15  1  3  1  0.000  0.000  1.000  1.000  0.000  0.000   1.0 |
 |  0.42  0.58  0.00  1  1  1  0.000  0.000  1.000  1.000  0.000  0.000   1.0 |
 |  0.42  0.58  0.00  1  2  1  0.000  0.000  1.000  1.000  0.000  0.000   1.0 |
 |  0.42  0.58  0.00  1  3  1  0.000  0.000  1.000  1.000  0.000  0.000   1.0 |
 |  0.42  0.58  0.15  1  1  1  0.000  0.000  1.000  1.000  0.000  0.000   1.0 |
 |  0.42  0.58  0.15  1  2  1  0.000  0.000  1.000  1.000  0.000  0.000   1.0 |
 |  0.42  0.58  0.15  1  3  1  0.000  0.000  1.000  1.000  0.000  0.000   1.0 |
 |  0.17  0.58  0.00  1  1  1  0.000  0.000  1.000  1.000  0.000  0.000   1.0 |
 |  0.17  0.58  0.00  1  2  1  0.000  0.000  1.000  1.000  0.000  0.000   1.0 |
 |  0.17  0.58  0.00  1  3  1  0.000  0.000  1.000  1.000  0.000  0.000   1.0 |
 |  0.17  0.58  0.16  1  1  1  0.000  0.000  1.000  1.000  0.000  0.000   1.0 |
 |  0.17  0.58  0.16  1  2  1  0.000  0.000  1.000  1.000  0.000  0.000   1.0 |
 |  0.17  0.58  0.16  1  3  1  0.000  0.000  1.000  1.000  0.000  0.000   1.0 |
 |  0.92  0.08 -0.00  1  1  1  0.000  0.000  1.000  1.000  0.000  0.000   1.0 |
 |  0.92  0.08 -0.00  1  2  1  0.000  0.000  1.000  1.000  0.000  0.000   1.0 |
 |  0.92  0.08 -0.00  1  3  1  0.000  0.000  1.000  1.000  0.000  0.000   1.0 |
 |  0.92  0.08  0.16  1  1  1  0.000  0.000  1.000  1.000  0.000  0.000   1.0 |
 |  0.92  0.08  0.16  1  2  1  0.000  0.000  1.000  1.000  0.000  0.000   1.0 |
 |  0.92  0.08  0.16  1  3  1  0.000  0.000  1.000  1.000  0.000  0.000   1.0 |
 |  0.92  0.33 -0.00  1  1  1  0.000  0.000  1.000  1.000  0.000  0.000   1.0 |
 |  0.92  0.33 -0.00  1  2  1  0.000  0.000  1.000  1.000  0.000  0.000   1.0 |
 |  0.92  0.33 -0.00  1  3  1  0.000  0.000  1.000  1.000  0.000  0.000   1.0 |
 |  0.92  0.33  0.16  1  1  1  0.000  0.000  1.000  1.000  0.000  0.000   1.0 |
 |  0.92  0.33  0.16  1  2  1  0.000  0.000  1.000  1.000  0.000  0.000   1.0 |
 |  0.92  0.33  0.16  1  3  1  0.000  0.000  1.000  1.000  0.000  0.000   1.0 |
 |  0.92  0.58  0.00  1  1  1  0.000  0.000  1.000  1.000  0.000  0.000   1.0 |
 |  0.92  0.58  0.00  1  2  1  0.000  0.000  1.000  1.000  0.000  0.000   1.0 |
 |  0.92  0.58  0.00  1  3  1  0.000  0.000  1.000  1.000  0.000  0.000   1.0 |
 |  0.92  0.58  0.16  1  1  1  0.000  0.000  1.000  1.000  0.000  0.000   1.0 |
 |  0.92  0.58  0.16  1  2  1  0.000  0.000  1.000  1.000  0.000  0.000   1.0 |
 |  0.92  0.58  0.16  1  3  1  0.000  0.000  1.000  1.000  0.000  0.000   1.0 |
 |  0.92  0.83  0.00  1  1  1  0.000  0.000  1.000  1.000  0.000  0.000   1.0 |
 |  0.92  0.83  0.00  1  2  1  0.000  0.000  1.000  1.000  0.000  0.000   1.0 |
 |  0.92  0.83  0.00  1  3  1  0.000  0.000  1.000  1.000  0.000  0.000   1.0 |
 |  0.92  0.83  0.16  1  1  1  0.000  0.000  1.000  1.000  0.000  0.000   1.0 |
 |  0.92  0.83  0.16  1  2  1  0.000  0.000  1.000  1.000  0.000  0.000   1.0 |
 |  0.92  0.83  0.16  1  3  1  0.000  0.000  1.000  1.000  0.000  0.000   1.0 |
 |  0.67  0.83  0.00  1  1  1  0.000  0.000  1.000  1.000  0.000  0.000   1.0 |
 |  0.67  0.83  0.00  1  2  1  0.000  0.000  1.000  1.000  0.000  0.000   1.0 |
 |  0.67  0.83  0.00  1  3  1  0.000  0.000  1.000  1.000  0.000  0.000   1.0 |
 |  0.67  0.83  0.16  1  1  1  0.000  0.000  1.000  1.000  0.000  0.000   1.0 |
 |  0.67  0.83  0.16  1  2  1  0.000  0.000  1.000  1.000  0.000  0.000   1.0 |
 |  0.67  0.83  0.16  1  3  1  0.000  0.000  1.000  1.000  0.000  0.000   1.0 |
 |  0.42  0.83  0.00  1  1  1  0.000  0.000  1.000  1.000  0.000  0.000   1.0 |
 |  0.42  0.83  0.00  1  2  1  0.000  0.000  1.000  1.000  0.000  0.000   1.0 |
 |  0.42  0.83  0.00  1  3  1  0.000  0.000  1.000  1.000  0.000  0.000   1.0 |
 |  0.42  0.83  0.16  1  1  1  0.000  0.000  1.000  1.000  0.000  0.000   1.0 |
 |  0.42  0.83  0.16  1  2  1  0.000  0.000  1.000  1.000  0.000  0.000   1.0 |
 |  0.42  0.83  0.16  1  3  1  0.000  0.000  1.000  1.000  0.000  0.000   1.0 |
 |  0.17  0.83 -0.00  1  1  1  0.000  0.000  1.000  1.000  0.000  0.000   1.0 |
 |  0.17  0.83 -0.00  1  2  1  0.000  0.000  1.000  1.000  0.000  0.000   1.0 |
 |  0.17  0.83 -0.00  1  3  1  0.000  0.000  1.000  1.000  0.000  0.000   1.0 |
 |  0.17  0.83  0.16  1  1  1  0.000  0.000  1.000  1.000  0.000  0.000   1.0 |
 |  0.17  0.83  0.16  1  2  1  0.000  0.000  1.000  1.000  0.000  0.000   1.0 |
 |  0.17  0.83  0.16  1  3  1  0.000  0.000  1.000  1.000  0.000  0.000   1.0 |
 +----------------------------------------------------------------------------+
  
                                ------------
                                K-POINT GRID
                                ------------
  
             Grid size =  4 x  4 x  1      Total points =   16
  
 *----------------------------------------------------------------------------*
 | k-point      Fractional Coordinate        Cartesian Coordinate (Ang^-1)    |
 +----------------------------------------------------------------------------+
 |     1    0.00000   0.00000   0.00000   |    0.00000   0.00000   0.00000    |
 |     2    0.00000   0.25000   0.00000   |    0.00000   0.13067   0.00000    |
 |     3    0.00000   0.50000   0.00000   |    0.00000   0.26133   0.00000    |
 |     4    0.00000   0.75000   0.00000   |    0.00000   0.39200   0.00000    |
 |     5    0.25000   0.00000   0.00000   |    0.11316   0.06533   0.00000    |
 |     6    0.25000   0.25000   0.00000   |    0.11316   0.19600   0.00000    |
 |     7    0.25000   0.50000   0.00000   |    0.11316   0.32666   0.00000    |
 |     8    0.25000   0.75000   0.00000   |    0.11316   0.45733   0.00000    |
 |     9    0.50000   0.00000   0.00000   |    0.22632   0.13067   0.00000    |
 |    10    0.50000   0.25000   0.00000   |    0.22632   0.26133   0.00000    |
 |    11    0.50000   0.50000   0.00000   |    0.22632   0.39200   0.00000    |
 |    12    0.50000   0.75000   0.00000   |    0.22632   0.52266   0.00000    |
 |    13    0.75000   0.00000   0.00000   |    0.33948   0.19600   0.00000    |
 |    14    0.75000   0.25000   0.00000   |    0.33948   0.32666   0.00000    |
 |    15    0.75000   0.50000   0.00000   |    0.33948   0.45733   0.00000    |
 |    16    0.75000   0.75000   0.00000   |    0.33948   0.58799   0.00000    |
 *----------------------------------------------------------------------------*
  
  
 *---------------------------------- MAIN ------------------------------------*
 |  Number of Wannier Functions               :               176             |
 |  Number of Objective Wannier Functions     :               176             |
 |  Number of input Bloch states              :               336             |
 |  Output verbosity (1=low, 5=high)          :                 3             |
 |  Timing Level (1=low, 5=high)              :                 1             |
 |  Optimisation (0=memory, 3=speed)          :                 3             |
 |  Length Unit                               :               Ang             |
 |  Post-processing setup (write *.nnkp)      :                 F             |
 |  Using Gamma-only branch of algorithms     :                 F             |
 |  CP code post-processing                   :                 F             |
 |  Wavefunction (UNK) file-type              :       unformatted             |
 |  Wavefunction spin channel                 :                up             |
 *----------------------------------------------------------------------------*
 *------------------------------- WANNIERISE ---------------------------------*
 |  Total number of iterations                :               500             |
 |  Number of CG steps before reset           :                 5             |
 |  Trial step length for line search         :             2.000             |
 |  Convergence tolerence                     :         0.100E-09             |
 |  Convergence window                        :                -1             |
 |  Iterations between writing output         :                50             |
 |  Iterations between backing up to disk     :               100             |
 |  Write r^2_nm to file                      :                 F             |
 |  Write xyz WF centres to file              :                 T             |
 |  Write on-site energies <0n|H|0n> to file  :                 F             |
 |  Use guiding centre to control phases      :                 T             |
 |  Use phases for initial projections        :                 F             |
 |  Iterations before starting guiding centres:                 0             |
 |  Iterations between using guiding centres  :                 1             |
 |  Perform selective localization            :                 F             |
 |  Use constrains in selective localization  :                 F             |
 |  Value of the Lagrange multiplier          :         0.100E+01             |
 *----------------------------------------------------------------------------*
 *------------------------------- DISENTANGLE --------------------------------*
 |  Using band disentanglement                :                 T             |
 |  Total number of iterations                :              4000             |
 |  Mixing ratio                              :             0.500             |
 |  Convergence tolerence                     :         1.000E-10             |
 |  Convergence window                        :                 3             |
 *----------------------------------------------------------------------------*
 *-------------------------------- PLOTTING ----------------------------------*
 |  Plotting Wannier functions                :                 F             |
 |   Size of supercell for plotting           :     2x    2x    2             |
 |   Plotting mode (molecule or crystal)      :           crystal             |
 |   Plotting format                          :          xcrysden             |
 |   Plot radius                              :             3.500             |
 |   Plot scale                               :             1.000             |
 *----------------------------------------------------------------------------*
 |  Plotting Fermi surface                    :                 F             |
 |   Number of plotting points (along b_1)    :                50             |
 |   Plotting format                          :          xcrysden             |
 *----------------------------------------------------------------------------*
 |  Plotting interpolated bandstructure       :                 T             |
 |   Number of K-path sections                :                 3             |
 |   Divisions along first K-path section     :               100             |
 |   Output format                            :           gnuplot             |
 |   Output mode                              :               s-k             |
 *----------------------------------------------------------------------------*
 |   K-space path sections:                                                   |
 |    From: Γ      0.000  0.000  0.000     To: M       0.500  0.000  0.000   |
 |    From: M       0.500  0.000  0.000     To: K       0.333  0.333  0.000   |
 |    From: K       0.333  0.333  0.000     To: Γ      0.000  0.000  0.000   |
 *----------------------------------------------------------------------------*
 |  Plotting Hamiltonian in WF basis          :                 T             |
 *----------------------------------------------------------------------------*
 |  Writing data for Van der Waals post-proc  :                 F             |
 *----------------------------------------------------------------------------*
 *------------------------------- TRANSPORT ----------------------------------*
 |  Transport mode                            :              bulk             |
 |   Hamiltonian from external files          :                 F             |
 |   System extended in                       :              none             |
 |   Centre of the unit cell to which WF are translated (fract. coords):      |
 |                                       0.000000,    0.000000,    0.000000   |
 |  Fermi energy (eV)                         :             0.000             |
 *----------------------------------------------------------------------------*
 Time to read parameters        0.029 (sec)

 *---------------------------------- K-MESH ----------------------------------*
 +----------------------------------------------------------------------------+
 |                    Distance to Nearest-Neighbour Shells                    |
 |                    ------------------------------------                    |
 |          Shell             Distance (Ang^-1)          Multiplicity         |
 |          -----             -----------------          ------------         |
 |             1                   0.130665                      6            |
 |             2                   0.226319                      6            |
 |             3                   0.261330                      6            |
 |             4                   0.293741                      2            |
 |             5                   0.321492                     12            |
 |             6                   0.345708                     12            |
 |             7                   0.370815                     12            |
 |             8                   0.391996                      6            |
 |             9                   0.393163                     12            |
 |            10                   0.452638                      6            |
 |            11                   0.453649                     24            |
 |            12                   0.471120                     12            |
 |            13                   0.489841                     12            |
 |            14                   0.522661                      6            |
 |            15                   0.539597                     12            |
 |            16                   0.555192                     24            |
 |            17                   0.569557                     12            |
 |            18                   0.587482                      2            |
 |            19                   0.598783                     12            |
 |            20                   0.599548                     12            |
 |            21                   0.601838                     12            |
 |            22                   0.629568                     12            |
 |            23                   0.640842                     24            |
 |            24                   0.642984                     12            |
 |            25                   0.653326                      6            |
 |            26                   0.666952                     24            |
 |            27                   0.678957                      6            |
 |            28                   0.681652                     24            |
 |            29                   0.691416                     12            |
 |            30                   0.706255                     12            |
 |            31                   0.716323                     12            |
 |            32                   0.727513                     12            |
 |            33                   0.739774                     12            |
 |            34                   0.741631                     12            |
 |            35                   0.751225                     24            |
 |            36                   0.753053                     24            |
 +----------------------------------------------------------------------------+
 | The b-vectors are chosen automatically                                     |
 | Shell:  1 Multiplicity:  6                                                 |
 | b-vector 1 :        0.000000    0.130665    0.000000      (Ang^-1)         |
 | b-vector 2 :        0.113159    0.065333    0.000000      (Ang^-1)         |
 | b-vector 3 :        0.000000   -0.130665    0.000000      (Ang^-1)         |
 | b-vector 4 :        0.113159   -0.065333    0.000000      (Ang^-1)         |
 | b-vector 5 :       -0.113159   -0.065333    0.000000      (Ang^-1)         |
 | b-vector 6 :       -0.113159    0.065333    0.000000      (Ang^-1)         |
 | Shell:  1 w_b   19.5235393      (Ang^2)                                    |
 | B1 condition is not satisfied: Adding another shell                        |
 | Shell:  2 Multiplicity:  6                                                 |
 | b-vector 1 :        0.113159    0.195998    0.000000      (Ang^-1)         |
 | b-vector 2 :        0.113159   -0.195998    0.000000      (Ang^-1)         |
 | b-vector 3 :        0.226319   -0.000000    0.000000      (Ang^-1)         |
 | b-vector 4 :       -0.226319    0.000000    0.000000      (Ang^-1)         |
 | b-vector 5 :       -0.113159    0.195998    0.000000      (Ang^-1)         |
 | b-vector 6 :       -0.113159   -0.195998    0.000000      (Ang^-1)         |
 | SVD found small singular value, Rejecting this shell and trying the next   |
 | Shell:  3 Multiplicity:  6                                                 |
 | b-vector 1 :        0.000000    0.261330    0.000000      (Ang^-1)         |
 | b-vector 2 :        0.226319    0.130665    0.000000      (Ang^-1)         |
 | b-vector 3 :        0.000000   -0.261330    0.000000      (Ang^-1)         |
 | b-vector 4 :        0.226319   -0.130665    0.000000      (Ang^-1)         |
 | b-vector 5 :       -0.226319   -0.130665    0.000000      (Ang^-1)         |
 | b-vector 6 :       -0.226319    0.130665    0.000000      (Ang^-1)         |
 | This shell is linearly dependent on existing shells: Trying next shell     |
 | Shell:  4 Multiplicity:  2                                                 |
 | b-vector 1 :        0.000000    0.000000    0.293741      (Ang^-1)         |
 | b-vector 2 :        0.000000    0.000000   -0.293741      (Ang^-1)         |
 | Shell:  1 w_b   19.5235393      (Ang^2)                                    |
 | Shell:  2 w_b    5.7948294      (Ang^2)                                    |
 | The following shells are used:   1,  4                                     |
 +----------------------------------------------------------------------------+
 |                        Shell   # Nearest-Neighbours                        |
 |                        -----   --------------------                        |
 |                          1               6                                 |
 |                          4               2                                 |
 +----------------------------------------------------------------------------+
 | Completeness relation is fully satisfied [Eq. (B1), PRB 56, 12847 (1997)]  |
 +----------------------------------------------------------------------------+
 |                  b_k Vectors (Ang^-1) and Weights (Ang^2)                  |
 |                  ----------------------------------------                  |
 |            No.         b_k(x)      b_k(y)      b_k(z)        w_b           |
 |            ---        --------------------------------     --------        |
 |             1         0.000000    0.130665    0.000000    19.523539        |
 |             2         0.113159    0.065333    0.000000    19.523539        |
 |             3         0.000000   -0.130665    0.000000    19.523539        |
 |             4         0.113159   -0.065333    0.000000    19.523539        |
 |             5        -0.113159   -0.065333    0.000000    19.523539        |
 |             6        -0.113159    0.065333    0.000000    19.523539        |
 |             7         0.000000    0.000000    0.293741     5.794829        |
 |             8         0.000000    0.000000   -0.293741     5.794829        |
 +----------------------------------------------------------------------------+
 |                           b_k Directions (Ang^-1)                          |
 |                           -----------------------                          |
 |            No.           x           y           z                         |
 |            ---        --------------------------------                     |
 |             1         0.000000    0.130665    0.000000                     |
 |             2         0.113159    0.065333    0.000000                     |
 |             3         0.113159   -0.065333    0.000000                     |
 |             4         0.000000    0.000000    0.293741                     |
 +----------------------------------------------------------------------------+
  
 Time to get kmesh              0.017 (sec)
 *============================================================================*
 |                              MEMORY ESTIMATE                               |
 |         Maximum RAM allocated during each phase of the calculation         |
 *============================================================================*
 |                        Disentanglement          317.62 Mb                  |
 |                            Wannierise:          169.07 Mb                  |
 |                                                                            |
 |   N.B. by setting optimisation=0 memory usage will be reduced to:          |
 |                        Disentanglement          317.15 Mb                  |
 |                            Wannierise:          108.57 Mb                  |
 |   However, this will result in more i/o and slow down the calculation      |
 |                          plot_wannier:          169.07 Mb                  |
 *----------------------------------------------------------------------------*
  
 Starting a new Wannier90 calculation ...


 Reading overlaps from nbsefe.down.mmn    :  Created on 17Jul2023 at 14:34:26

 Reading projections from nbsefe.down.amn :  Created on 17Jul2023 at 14:18: 7

 Time to read overlaps         35.290 (sec)

 *------------------------------- DISENTANGLE --------------------------------*
 +----------------------------------------------------------------------------+
 |                              Energy  Windows                               |
 |                              ---------------                               |
 |                   Outer:   -7.00000  to    7.00000  (eV)                   |
 |                   Inner:   -2.00000  to    0.00000  (eV)                   |
 +----------------------------------------------------------------------------+
 |                        K-points with Frozen States                         |
 |                        ---------------------------                         |
 |     1     2     3     4     5     6     7     8     9    10    11    12    |
 |    13    14    15    16                                                    |
 +----------------------------------------------------------------------------+
   Number of target bands to extract:  176
 +----------------------------------------------------------------------------+
 |                                  Windows                                   |
 |                                  -------                                   |
 |               K-point      Ndimwin     Ndimfroz    Nfirstwin               |
 |               ----------------------------------------------               |
 |                   1          240           21          97                  |
 |                   2          240           18          97                  |
 |                   3          240           21          97                  |
 |                   4          240           18          97                  |
 |                   5          240           18          97                  |
 |                   6          240           20          97                  |
 |                   7          240           20          97                  |
 |                   8          240           18          97                  |
 |                   9          240           21          97                  |
 |                  10          240           20          97                  |
 |                  11          240           21          97                  |
 |                  12          240           20          97                  |
 |                  13          240           18          97                  |
 |                  14          240           18          97                  |
 |                  15          240           20          97                  |
 |                  16          240           20          97                  |
 +----------------------------------------------------------------------------+

                   Unitarised projection of Wannier functions                  
                   ------------------------------------------                  
   A_mn = <psi_m|g_n> --> S = A.A^+ --> U = S^-1/2.A
   In dis_project... done
   Using an inner window (linner = T)
   In dis_proj_froz...
 K-point   1 ndimwin: 240 we want the155 leading eigenvector(s) of QPQ
  lambda(  1)= -0.000000000000
  lambda(  2)= -0.000000000000
  lambda(  3)= -0.000000000000
  lambda(  4)= -0.000000000000
  lambda(  5)= -0.000000000000
  lambda(  6)= -0.000000000000
  lambda(  7)= -0.000000000000
  lambda(  8)= -0.000000000000
  lambda(  9)= -0.000000000000
  lambda( 10)= -0.000000000000
  lambda( 11)= -0.000000000000
  lambda( 12)= -0.000000000000
  lambda( 13)= -0.000000000000
  lambda( 14)= -0.000000000000
  lambda( 15)= -0.000000000000
  lambda( 16)= -0.000000000000
  lambda( 17)= -0.000000000000
  lambda( 18)= -0.000000000000
  lambda( 19)= -0.000000000000
  lambda( 20)= -0.000000000000
  lambda( 21)= -0.000000000000
  lambda( 22)= -0.000000000000
  lambda( 23)= -0.000000000000
  lambda( 24)= -0.000000000000
  lambda( 25)= -0.000000000000
  lambda( 26)= -0.000000000000
  lambda( 27)= -0.000000000000
  lambda( 28)= -0.000000000000
  lambda( 29)= -0.000000000000
  lambda( 30)= -0.000000000000
  lambda( 31)= -0.000000000000
  lambda( 32)= -0.000000000000
  lambda( 33)= -0.000000000000
  lambda( 34)= -0.000000000000
  lambda( 35)= -0.000000000000
  lambda( 36)=  0.000000000000
  lambda( 37)=  0.000000000000
  lambda( 38)=  0.000000000000
  lambda( 39)=  0.000000000000
  lambda( 40)=  0.000000000000
  lambda( 41)=  0.000000000000
  lambda( 42)=  0.000000000000
  lambda( 43)=  0.000000000000
  lambda( 44)=  0.000000000000
  lambda( 45)=  0.000000000000
  lambda( 46)=  0.000000000000
  lambda( 47)=  0.000000000000
  lambda( 48)=  0.000000000000
  lambda( 49)=  0.000000000000
  lambda( 50)=  0.000000000000
  lambda( 51)=  0.000000000000
  lambda( 52)=  0.000000000000
  lambda( 53)=  0.000000000000
  lambda( 54)=  0.000000000000
  lambda( 55)=  0.000000000000
  lambda( 56)=  0.000000000000
  lambda( 57)=  0.000000000000
  lambda( 58)=  0.000000000000
  lambda( 59)=  0.000000000000
  lambda( 60)=  0.000000000000
  lambda( 61)=  0.000000000000
  lambda( 62)=  0.000000000000
  lambda( 63)=  0.000000000000
  lambda( 64)=  0.000000000000
  lambda( 65)=  0.000000055028
  lambda( 66)=  0.000030523898
  lambda( 67)=  0.000030629722
  lambda( 68)=  0.002364801944
  lambda( 69)=  0.002364895755
  lambda( 70)=  0.018216007281
  lambda( 71)=  0.020240438765
  lambda( 72)=  0.020240861303
  lambda( 73)=  0.021596456709
  lambda( 74)=  0.021597804619
  lambda( 75)=  0.023813777363
  lambda( 76)=  0.039200180295
  lambda( 77)=  0.039201350630
  lambda( 78)=  0.044005550013
  lambda( 79)=  0.044161567317
  lambda( 80)=  0.046335419891
  lambda( 81)=  0.046374959483
  lambda( 82)=  0.046376041998
  lambda( 83)=  0.100847400509
  lambda( 84)=  0.100858640163
  lambda( 85)=  0.104368565661
  lambda( 86)=  1.000000000000
  lambda( 87)=  1.000000000000
  lambda( 88)=  1.000000000000
  lambda( 89)=  1.000000000000
  lambda( 90)=  1.000000000000
  lambda( 91)=  1.000000000000
  lambda( 92)=  1.000000000000
  lambda( 93)=  1.000000000000
  lambda( 94)=  1.000000000000
  lambda( 95)=  1.000000000000
  lambda( 96)=  1.000000000000
  lambda( 97)=  1.000000000000
  lambda( 98)=  1.000000000000
  lambda( 99)=  1.000000000000
  lambda(100)=  1.000000000000
  lambda(101)=  1.000000000000
  lambda(102)=  1.000000000000
  lambda(103)=  1.000000000000
  lambda(104)=  1.000000000000
  lambda(105)=  1.000000000000
  lambda(106)=  1.000000000000
  lambda(107)=  1.000000000000
  lambda(108)=  1.000000000000
  lambda(109)=  1.000000000000
  lambda(110)=  1.000000000000
  lambda(111)=  1.000000000000
  lambda(112)=  1.000000000000
  lambda(113)=  1.000000000000
  lambda(114)=  1.000000000000
  lambda(115)=  1.000000000000
  lambda(116)=  1.000000000000
  lambda(117)=  1.000000000000
  lambda(118)=  1.000000000000
  lambda(119)=  1.000000000000
  lambda(120)=  1.000000000000
  lambda(121)=  1.000000000000
  lambda(122)=  1.000000000000
  lambda(123)=  1.000000000000
  lambda(124)=  1.000000000000
  lambda(125)=  1.000000000000
  lambda(126)=  1.000000000000
  lambda(127)=  1.000000000000
  lambda(128)=  1.000000000000
  lambda(129)=  1.000000000000
  lambda(130)=  1.000000000000
  lambda(131)=  1.000000000000
  lambda(132)=  1.000000000000
  lambda(133)=  1.000000000000
  lambda(134)=  1.000000000000
  lambda(135)=  1.000000000000
  lambda(136)=  1.000000000000
  lambda(137)=  1.000000000000
  lambda(138)=  1.000000000000
  lambda(139)=  1.000000000000
  lambda(140)=  1.000000000000
  lambda(141)=  1.000000000000
  lambda(142)=  1.000000000000
  lambda(143)=  1.000000000000
  lambda(144)=  1.000000000000
  lambda(145)=  1.000000000000
  lambda(146)=  1.000000000000
  lambda(147)=  1.000000000000
  lambda(148)=  1.000000000000
  lambda(149)=  1.000000000000
  lambda(150)=  1.000000000000
  lambda(151)=  1.000000000000
  lambda(152)=  1.000000000000
  lambda(153)=  1.000000000000
  lambda(154)=  1.000000000000
  lambda(155)=  1.000000000000
  lambda(156)=  1.000000000000
  lambda(157)=  1.000000000000
  lambda(158)=  1.000000000000
  lambda(159)=  1.000000000000
  lambda(160)=  1.000000000000
  lambda(161)=  1.000000000000
  lambda(162)=  1.000000000000
  lambda(163)=  1.000000000000
  lambda(164)=  1.000000000000
  lambda(165)=  1.000000000000
  lambda(166)=  1.000000000000
  lambda(167)=  1.000000000000
  lambda(168)=  1.000000000000
  lambda(169)=  1.000000000000
  lambda(170)=  1.000000000000
  lambda(171)=  1.000000000000
  lambda(172)=  1.000000000000
  lambda(173)=  1.000000000000
  lambda(174)=  1.000000000000
  lambda(175)=  1.000000000000
  lambda(176)=  1.000000000000
  lambda(177)=  1.000000000000
  lambda(178)=  1.000000000000
  lambda(179)=  1.000000000000
  lambda(180)=  1.000000000000
  lambda(181)=  1.000000000000
  lambda(182)=  1.000000000000
  lambda(183)=  1.000000000000
  lambda(184)=  1.000000000000
  lambda(185)=  1.000000000000
  lambda(186)=  1.000000000000
  lambda(187)=  1.000000000000
  lambda(188)=  1.000000000000
  lambda(189)=  1.000000000000
  lambda(190)=  1.000000000000
  lambda(191)=  1.000000000000
  lambda(192)=  1.000000000000
  lambda(193)=  1.000000000000
  lambda(194)=  1.000000000000
  lambda(195)=  1.000000000000
  lambda(196)=  1.000000000000
  lambda(197)=  1.000000000000
  lambda(198)=  1.000000000000
  lambda(199)=  1.000000000000
  lambda(200)=  1.000000000000
  lambda(201)=  1.000000000000
  lambda(202)=  1.000000000000
  lambda(203)=  1.000000000000
  lambda(204)=  1.000000000000
  lambda(205)=  1.000000000000
  lambda(206)=  1.000000000000
  lambda(207)=  1.000000000000
  lambda(208)=  1.000000000000
  lambda(209)=  1.000000000000
  lambda(210)=  1.000000000000
  lambda(211)=  1.000000000000
  lambda(212)=  1.000000000000
  lambda(213)=  1.000000000000
  lambda(214)=  1.000000000000
  lambda(215)=  1.000000000000
  lambda(216)=  1.000000000000
  lambda(217)=  1.000000000000
  lambda(218)=  1.000000000000
  lambda(219)=  1.000000000000
  lambda(220)=  1.000000000000
  lambda(221)=  1.000000000000
  lambda(222)=  1.000000000000
  lambda(223)=  1.000000000000
  lambda(224)=  1.000000000000
  lambda(225)=  1.000000000000
  lambda(226)=  1.000000000000
  lambda(227)=  1.000000000000
  lambda(228)=  1.000000000000
  lambda(229)=  1.000000000000
  lambda(230)=  1.000000000000
  lambda(231)=  1.000000000000
  lambda(232)=  1.000000000000
  lambda(233)=  1.000000000000
  lambda(234)=  1.000000000000
  lambda(235)=  1.000000000000
  lambda(236)=  1.000000000000
  lambda(237)=  1.000000000000
  lambda(238)=  1.000000000000
  lambda(239)=  1.000000000000
  lambda(240)=  1.000000000000

 K-point   2 ndimwin: 240 we want the158 leading eigenvector(s) of QPQ
  lambda(  1)= -0.000000000000
  lambda(  2)= -0.000000000000
  lambda(  3)= -0.000000000000
  lambda(  4)= -0.000000000000
  lambda(  5)= -0.000000000000
  lambda(  6)= -0.000000000000
  lambda(  7)= -0.000000000000
  lambda(  8)= -0.000000000000
  lambda(  9)= -0.000000000000
  lambda( 10)= -0.000000000000
  lambda( 11)= -0.000000000000
  lambda( 12)= -0.000000000000
  lambda( 13)= -0.000000000000
  lambda( 14)= -0.000000000000
  lambda( 15)= -0.000000000000
  lambda( 16)= -0.000000000000
  lambda( 17)= -0.000000000000
  lambda( 18)= -0.000000000000
  lambda( 19)= -0.000000000000
  lambda( 20)= -0.000000000000
  lambda( 21)= -0.000000000000
  lambda( 22)= -0.000000000000
  lambda( 23)= -0.000000000000
  lambda( 24)= -0.000000000000
  lambda( 25)= -0.000000000000
  lambda( 26)= -0.000000000000
  lambda( 27)= -0.000000000000
  lambda( 28)= -0.000000000000
  lambda( 29)= -0.000000000000
  lambda( 30)= -0.000000000000
  lambda( 31)= -0.000000000000
  lambda( 32)=  0.000000000000
  lambda( 33)=  0.000000000000
  lambda( 34)=  0.000000000000
  lambda( 35)=  0.000000000000
  lambda( 36)=  0.000000000000
  lambda( 37)=  0.000000000000
  lambda( 38)=  0.000000000000
  lambda( 39)=  0.000000000000
  lambda( 40)=  0.000000000000
  lambda( 41)=  0.000000000000
  lambda( 42)=  0.000000000000
  lambda( 43)=  0.000000000000
  lambda( 44)=  0.000000000000
  lambda( 45)=  0.000000000000
  lambda( 46)=  0.000000000000
  lambda( 47)=  0.000000000000
  lambda( 48)=  0.000000000000
  lambda( 49)=  0.000000000000
  lambda( 50)=  0.000000000000
  lambda( 51)=  0.000000000000
  lambda( 52)=  0.000000000000
  lambda( 53)=  0.000000000000
  lambda( 54)=  0.000000000000
  lambda( 55)=  0.000000000000
  lambda( 56)=  0.000000000000
  lambda( 57)=  0.000000000000
  lambda( 58)=  0.000000000000
  lambda( 59)=  0.000000000000
  lambda( 60)=  0.000000000000
  lambda( 61)=  0.000000000000
  lambda( 62)=  0.000000000000
  lambda( 63)=  0.000000000000
  lambda( 64)=  0.000000000000
  lambda( 65)=  0.004785869988
  lambda( 66)=  0.005105082433
  lambda( 67)=  0.009393511120
  lambda( 68)=  0.009933304741
  lambda( 69)=  0.010171384974
  lambda( 70)=  0.016111631235
  lambda( 71)=  0.016219722929
  lambda( 72)=  0.023939847209
  lambda( 73)=  0.029066106880
  lambda( 74)=  0.029132523594
  lambda( 75)=  0.039875693615
  lambda( 76)=  0.042315990654
  lambda( 77)=  0.044985830613
  lambda( 78)=  0.050386731595
  lambda( 79)=  0.052056776828
  lambda( 80)=  0.068715903899
  lambda( 81)=  0.070759677871
  lambda( 82)=  0.082186151407
  lambda( 83)=  1.000000000000
  lambda( 84)=  1.000000000000
  lambda( 85)=  1.000000000000
  lambda( 86)=  1.000000000000
  lambda( 87)=  1.000000000000
  lambda( 88)=  1.000000000000
  lambda( 89)=  1.000000000000
  lambda( 90)=  1.000000000000
  lambda( 91)=  1.000000000000
  lambda( 92)=  1.000000000000
  lambda( 93)=  1.000000000000
  lambda( 94)=  1.000000000000
  lambda( 95)=  1.000000000000
  lambda( 96)=  1.000000000000
  lambda( 97)=  1.000000000000
  lambda( 98)=  1.000000000000
  lambda( 99)=  1.000000000000
  lambda(100)=  1.000000000000
  lambda(101)=  1.000000000000
  lambda(102)=  1.000000000000
  lambda(103)=  1.000000000000
  lambda(104)=  1.000000000000
  lambda(105)=  1.000000000000
  lambda(106)=  1.000000000000
  lambda(107)=  1.000000000000
  lambda(108)=  1.000000000000
  lambda(109)=  1.000000000000
  lambda(110)=  1.000000000000
  lambda(111)=  1.000000000000
  lambda(112)=  1.000000000000
  lambda(113)=  1.000000000000
  lambda(114)=  1.000000000000
  lambda(115)=  1.000000000000
  lambda(116)=  1.000000000000
  lambda(117)=  1.000000000000
  lambda(118)=  1.000000000000
  lambda(119)=  1.000000000000
  lambda(120)=  1.000000000000
  lambda(121)=  1.000000000000
  lambda(122)=  1.000000000000
  lambda(123)=  1.000000000000
  lambda(124)=  1.000000000000
  lambda(125)=  1.000000000000
  lambda(126)=  1.000000000000
  lambda(127)=  1.000000000000
  lambda(128)=  1.000000000000
  lambda(129)=  1.000000000000
  lambda(130)=  1.000000000000
  lambda(131)=  1.000000000000
  lambda(132)=  1.000000000000
  lambda(133)=  1.000000000000
  lambda(134)=  1.000000000000
  lambda(135)=  1.000000000000
  lambda(136)=  1.000000000000
  lambda(137)=  1.000000000000
  lambda(138)=  1.000000000000
  lambda(139)=  1.000000000000
  lambda(140)=  1.000000000000
  lambda(141)=  1.000000000000
  lambda(142)=  1.000000000000
  lambda(143)=  1.000000000000
  lambda(144)=  1.000000000000
  lambda(145)=  1.000000000000
  lambda(146)=  1.000000000000
  lambda(147)=  1.000000000000
  lambda(148)=  1.000000000000
  lambda(149)=  1.000000000000
  lambda(150)=  1.000000000000
  lambda(151)=  1.000000000000
  lambda(152)=  1.000000000000
  lambda(153)=  1.000000000000
  lambda(154)=  1.000000000000
  lambda(155)=  1.000000000000
  lambda(156)=  1.000000000000
  lambda(157)=  1.000000000000
  lambda(158)=  1.000000000000
  lambda(159)=  1.000000000000
  lambda(160)=  1.000000000000
  lambda(161)=  1.000000000000
  lambda(162)=  1.000000000000
  lambda(163)=  1.000000000000
  lambda(164)=  1.000000000000
  lambda(165)=  1.000000000000
  lambda(166)=  1.000000000000
  lambda(167)=  1.000000000000
  lambda(168)=  1.000000000000
  lambda(169)=  1.000000000000
  lambda(170)=  1.000000000000
  lambda(171)=  1.000000000000
  lambda(172)=  1.000000000000
  lambda(173)=  1.000000000000
  lambda(174)=  1.000000000000
  lambda(175)=  1.000000000000
  lambda(176)=  1.000000000000
  lambda(177)=  1.000000000000
  lambda(178)=  1.000000000000
  lambda(179)=  1.000000000000
  lambda(180)=  1.000000000000
  lambda(181)=  1.000000000000
  lambda(182)=  1.000000000000
  lambda(183)=  1.000000000000
  lambda(184)=  1.000000000000
  lambda(185)=  1.000000000000
  lambda(186)=  1.000000000000
  lambda(187)=  1.000000000000
  lambda(188)=  1.000000000000
  lambda(189)=  1.000000000000
  lambda(190)=  1.000000000000
  lambda(191)=  1.000000000000
  lambda(192)=  1.000000000000
  lambda(193)=  1.000000000000
  lambda(194)=  1.000000000000
  lambda(195)=  1.000000000000
  lambda(196)=  1.000000000000
  lambda(197)=  1.000000000000
  lambda(198)=  1.000000000000
  lambda(199)=  1.000000000000
  lambda(200)=  1.000000000000
  lambda(201)=  1.000000000000
  lambda(202)=  1.000000000000
  lambda(203)=  1.000000000000
  lambda(204)=  1.000000000000
  lambda(205)=  1.000000000000
  lambda(206)=  1.000000000000
  lambda(207)=  1.000000000000
  lambda(208)=  1.000000000000
  lambda(209)=  1.000000000000
  lambda(210)=  1.000000000000
  lambda(211)=  1.000000000000
  lambda(212)=  1.000000000000
  lambda(213)=  1.000000000000
  lambda(214)=  1.000000000000
  lambda(215)=  1.000000000000
  lambda(216)=  1.000000000000
  lambda(217)=  1.000000000000
  lambda(218)=  1.000000000000
  lambda(219)=  1.000000000000
  lambda(220)=  1.000000000000
  lambda(221)=  1.000000000000
  lambda(222)=  1.000000000000
  lambda(223)=  1.000000000000
  lambda(224)=  1.000000000000
  lambda(225)=  1.000000000000
  lambda(226)=  1.000000000000
  lambda(227)=  1.000000000000
  lambda(228)=  1.000000000000
  lambda(229)=  1.000000000000
  lambda(230)=  1.000000000000
  lambda(231)=  1.000000000000
  lambda(232)=  1.000000000000
  lambda(233)=  1.000000000000
  lambda(234)=  1.000000000000
  lambda(235)=  1.000000000000
  lambda(236)=  1.000000000000
  lambda(237)=  1.000000000000
  lambda(238)=  1.000000000000
  lambda(239)=  1.000000000000
  lambda(240)=  1.000000000000

 K-point   3 ndimwin: 240 we want the155 leading eigenvector(s) of QPQ
  lambda(  1)= -0.000000000000
  lambda(  2)= -0.000000000000
  lambda(  3)= -0.000000000000
  lambda(  4)= -0.000000000000
  lambda(  5)= -0.000000000000
  lambda(  6)= -0.000000000000
  lambda(  7)= -0.000000000000
  lambda(  8)= -0.000000000000
  lambda(  9)= -0.000000000000
  lambda( 10)= -0.000000000000
  lambda( 11)= -0.000000000000
  lambda( 12)= -0.000000000000
  lambda( 13)= -0.000000000000
  lambda( 14)= -0.000000000000
  lambda( 15)= -0.000000000000
  lambda( 16)= -0.000000000000
  lambda( 17)= -0.000000000000
  lambda( 18)= -0.000000000000
  lambda( 19)= -0.000000000000
  lambda( 20)= -0.000000000000
  lambda( 21)= -0.000000000000
  lambda( 22)= -0.000000000000
  lambda( 23)= -0.000000000000
  lambda( 24)= -0.000000000000
  lambda( 25)= -0.000000000000
  lambda( 26)= -0.000000000000
  lambda( 27)= -0.000000000000
  lambda( 28)= -0.000000000000
  lambda( 29)=  0.000000000000
  lambda( 30)=  0.000000000000
  lambda( 31)=  0.000000000000
  lambda( 32)=  0.000000000000
  lambda( 33)=  0.000000000000
  lambda( 34)=  0.000000000000
  lambda( 35)=  0.000000000000
  lambda( 36)=  0.000000000000
  lambda( 37)=  0.000000000000
  lambda( 38)=  0.000000000000
  lambda( 39)=  0.000000000000
  lambda( 40)=  0.000000000000
  lambda( 41)=  0.000000000000
  lambda( 42)=  0.000000000000
  lambda( 43)=  0.000000000000
  lambda( 44)=  0.000000000000
  lambda( 45)=  0.000000000000
  lambda( 46)=  0.000000000000
  lambda( 47)=  0.000000000000
  lambda( 48)=  0.000000000000
  lambda( 49)=  0.000000000000
  lambda( 50)=  0.000000000000
  lambda( 51)=  0.000000000000
  lambda( 52)=  0.000000000000
  lambda( 53)=  0.000000000000
  lambda( 54)=  0.000000000000
  lambda( 55)=  0.000000000000
  lambda( 56)=  0.000000000000
  lambda( 57)=  0.000000000000
  lambda( 58)=  0.000000000000
  lambda( 59)=  0.000000000000
  lambda( 60)=  0.000000000000
  lambda( 61)=  0.000000000000
  lambda( 62)=  0.000000000000
  lambda( 63)=  0.000000000000
  lambda( 64)=  0.000000000000
  lambda( 65)=  0.003478854097
  lambda( 66)=  0.003558848136
  lambda( 67)=  0.003805903027
  lambda( 68)=  0.007122939229
  lambda( 69)=  0.009210867819
  lambda( 70)=  0.009395969333
  lambda( 71)=  0.010070400821
  lambda( 72)=  0.013191004939
  lambda( 73)=  0.015384447729
  lambda( 74)=  0.015650576452
  lambda( 75)=  0.017348359398
  lambda( 76)=  0.022788800982
  lambda( 77)=  0.024368295814
  lambda( 78)=  0.046081250261
  lambda( 79)=  0.047413652201
  lambda( 80)=  0.049936111622
  lambda( 81)=  0.049951376317
  lambda( 82)=  0.052489260297
  lambda( 83)=  0.053343864688
  lambda( 84)=  0.054140324670
  lambda( 85)=  0.056666876072
  lambda( 86)=  1.000000000000
  lambda( 87)=  1.000000000000
  lambda( 88)=  1.000000000000
  lambda( 89)=  1.000000000000
  lambda( 90)=  1.000000000000
  lambda( 91)=  1.000000000000
  lambda( 92)=  1.000000000000
  lambda( 93)=  1.000000000000
  lambda( 94)=  1.000000000000
  lambda( 95)=  1.000000000000
  lambda( 96)=  1.000000000000
  lambda( 97)=  1.000000000000
  lambda( 98)=  1.000000000000
  lambda( 99)=  1.000000000000
  lambda(100)=  1.000000000000
  lambda(101)=  1.000000000000
  lambda(102)=  1.000000000000
  lambda(103)=  1.000000000000
  lambda(104)=  1.000000000000
  lambda(105)=  1.000000000000
  lambda(106)=  1.000000000000
  lambda(107)=  1.000000000000
  lambda(108)=  1.000000000000
  lambda(109)=  1.000000000000
  lambda(110)=  1.000000000000
  lambda(111)=  1.000000000000
  lambda(112)=  1.000000000000
  lambda(113)=  1.000000000000
  lambda(114)=  1.000000000000
  lambda(115)=  1.000000000000
  lambda(116)=  1.000000000000
  lambda(117)=  1.000000000000
  lambda(118)=  1.000000000000
  lambda(119)=  1.000000000000
  lambda(120)=  1.000000000000
  lambda(121)=  1.000000000000
  lambda(122)=  1.000000000000
  lambda(123)=  1.000000000000
  lambda(124)=  1.000000000000
  lambda(125)=  1.000000000000
  lambda(126)=  1.000000000000
  lambda(127)=  1.000000000000
  lambda(128)=  1.000000000000
  lambda(129)=  1.000000000000
  lambda(130)=  1.000000000000
  lambda(131)=  1.000000000000
  lambda(132)=  1.000000000000
  lambda(133)=  1.000000000000
  lambda(134)=  1.000000000000
  lambda(135)=  1.000000000000
  lambda(136)=  1.000000000000
  lambda(137)=  1.000000000000
  lambda(138)=  1.000000000000
  lambda(139)=  1.000000000000
  lambda(140)=  1.000000000000
  lambda(141)=  1.000000000000
  lambda(142)=  1.000000000000
  lambda(143)=  1.000000000000
  lambda(144)=  1.000000000000
  lambda(145)=  1.000000000000
  lambda(146)=  1.000000000000
  lambda(147)=  1.000000000000
  lambda(148)=  1.000000000000
  lambda(149)=  1.000000000000
  lambda(150)=  1.000000000000
  lambda(151)=  1.000000000000
  lambda(152)=  1.000000000000
  lambda(153)=  1.000000000000
  lambda(154)=  1.000000000000
  lambda(155)=  1.000000000000
  lambda(156)=  1.000000000000
  lambda(157)=  1.000000000000
  lambda(158)=  1.000000000000
  lambda(159)=  1.000000000000
  lambda(160)=  1.000000000000
  lambda(161)=  1.000000000000
  lambda(162)=  1.000000000000
  lambda(163)=  1.000000000000
  lambda(164)=  1.000000000000
  lambda(165)=  1.000000000000
  lambda(166)=  1.000000000000
  lambda(167)=  1.000000000000
  lambda(168)=  1.000000000000
  lambda(169)=  1.000000000000
  lambda(170)=  1.000000000000
  lambda(171)=  1.000000000000
  lambda(172)=  1.000000000000
  lambda(173)=  1.000000000000
  lambda(174)=  1.000000000000
  lambda(175)=  1.000000000000
  lambda(176)=  1.000000000000
  lambda(177)=  1.000000000000
  lambda(178)=  1.000000000000
  lambda(179)=  1.000000000000
  lambda(180)=  1.000000000000
  lambda(181)=  1.000000000000
  lambda(182)=  1.000000000000
  lambda(183)=  1.000000000000
  lambda(184)=  1.000000000000
  lambda(185)=  1.000000000000
  lambda(186)=  1.000000000000
  lambda(187)=  1.000000000000
  lambda(188)=  1.000000000000
  lambda(189)=  1.000000000000
  lambda(190)=  1.000000000000
  lambda(191)=  1.000000000000
  lambda(192)=  1.000000000000
  lambda(193)=  1.000000000000
  lambda(194)=  1.000000000000
  lambda(195)=  1.000000000000
  lambda(196)=  1.000000000000
  lambda(197)=  1.000000000000
  lambda(198)=  1.000000000000
  lambda(199)=  1.000000000000
  lambda(200)=  1.000000000000
  lambda(201)=  1.000000000000
  lambda(202)=  1.000000000000
  lambda(203)=  1.000000000000
  lambda(204)=  1.000000000000
  lambda(205)=  1.000000000000
  lambda(206)=  1.000000000000
  lambda(207)=  1.000000000000
  lambda(208)=  1.000000000000
  lambda(209)=  1.000000000000
  lambda(210)=  1.000000000000
  lambda(211)=  1.000000000000
  lambda(212)=  1.000000000000
  lambda(213)=  1.000000000000
  lambda(214)=  1.000000000000
  lambda(215)=  1.000000000000
  lambda(216)=  1.000000000000
  lambda(217)=  1.000000000000
  lambda(218)=  1.000000000000
  lambda(219)=  1.000000000000
  lambda(220)=  1.000000000000
  lambda(221)=  1.000000000000
  lambda(222)=  1.000000000000
  lambda(223)=  1.000000000000
  lambda(224)=  1.000000000000
  lambda(225)=  1.000000000000
  lambda(226)=  1.000000000000
  lambda(227)=  1.000000000000
  lambda(228)=  1.000000000000
  lambda(229)=  1.000000000000
  lambda(230)=  1.000000000000
  lambda(231)=  1.000000000000
  lambda(232)=  1.000000000000
  lambda(233)=  1.000000000000
  lambda(234)=  1.000000000000
  lambda(235)=  1.000000000000
  lambda(236)=  1.000000000000
  lambda(237)=  1.000000000000
  lambda(238)=  1.000000000000
  lambda(239)=  1.000000000000
  lambda(240)=  1.000000000000

 K-point   4 ndimwin: 240 we want the158 leading eigenvector(s) of QPQ
  lambda(  1)= -0.000000000000
  lambda(  2)= -0.000000000000
  lambda(  3)= -0.000000000000
  lambda(  4)= -0.000000000000
  lambda(  5)= -0.000000000000
  lambda(  6)= -0.000000000000
  lambda(  7)= -0.000000000000
  lambda(  8)= -0.000000000000
  lambda(  9)= -0.000000000000
  lambda( 10)= -0.000000000000
  lambda( 11)= -0.000000000000
  lambda( 12)= -0.000000000000
  lambda( 13)= -0.000000000000
  lambda( 14)= -0.000000000000
  lambda( 15)= -0.000000000000
  lambda( 16)= -0.000000000000
  lambda( 17)= -0.000000000000
  lambda( 18)= -0.000000000000
  lambda( 19)= -0.000000000000
  lambda( 20)= -0.000000000000
  lambda( 21)= -0.000000000000
  lambda( 22)= -0.000000000000
  lambda( 23)= -0.000000000000
  lambda( 24)= -0.000000000000
  lambda( 25)= -0.000000000000
  lambda( 26)= -0.000000000000
  lambda( 27)= -0.000000000000
  lambda( 28)= -0.000000000000
  lambda( 29)= -0.000000000000
  lambda( 30)= -0.000000000000
  lambda( 31)= -0.000000000000
  lambda( 32)= -0.000000000000
  lambda( 33)= -0.000000000000
  lambda( 34)= -0.000000000000
  lambda( 35)= -0.000000000000
  lambda( 36)=  0.000000000000
  lambda( 37)=  0.000000000000
  lambda( 38)=  0.000000000000
  lambda( 39)=  0.000000000000
  lambda( 40)=  0.000000000000
  lambda( 41)=  0.000000000000
  lambda( 42)=  0.000000000000
  lambda( 43)=  0.000000000000
  lambda( 44)=  0.000000000000
  lambda( 45)=  0.000000000000
  lambda( 46)=  0.000000000000
  lambda( 47)=  0.000000000000
  lambda( 48)=  0.000000000000
  lambda( 49)=  0.000000000000
  lambda( 50)=  0.000000000000
  lambda( 51)=  0.000000000000
  lambda( 52)=  0.000000000000
  lambda( 53)=  0.000000000000
  lambda( 54)=  0.000000000000
  lambda( 55)=  0.000000000000
  lambda( 56)=  0.000000000000
  lambda( 57)=  0.000000000000
  lambda( 58)=  0.000000000000
  lambda( 59)=  0.000000000000
  lambda( 60)=  0.000000000000
  lambda( 61)=  0.000000000000
  lambda( 62)=  0.000000000000
  lambda( 63)=  0.000000000000
  lambda( 64)=  0.000000000000
  lambda( 65)=  0.004785860762
  lambda( 66)=  0.005105083619
  lambda( 67)=  0.009393516112
  lambda( 68)=  0.009933306812
  lambda( 69)=  0.010171386248
  lambda( 70)=  0.016111670913
  lambda( 71)=  0.016219752596
  lambda( 72)=  0.023939843833
  lambda( 73)=  0.029066106348
  lambda( 74)=  0.029132526033
  lambda( 75)=  0.039875700198
  lambda( 76)=  0.042315987821
  lambda( 77)=  0.044985829224
  lambda( 78)=  0.050386731570
  lambda( 79)=  0.052056777136
  lambda( 80)=  0.068715903952
  lambda( 81)=  0.070759675802
  lambda( 82)=  0.082186149784
  lambda( 83)=  1.000000000000
  lambda( 84)=  1.000000000000
  lambda( 85)=  1.000000000000
  lambda( 86)=  1.000000000000
  lambda( 87)=  1.000000000000
  lambda( 88)=  1.000000000000
  lambda( 89)=  1.000000000000
  lambda( 90)=  1.000000000000
  lambda( 91)=  1.000000000000
  lambda( 92)=  1.000000000000
  lambda( 93)=  1.000000000000
  lambda( 94)=  1.000000000000
  lambda( 95)=  1.000000000000
  lambda( 96)=  1.000000000000
  lambda( 97)=  1.000000000000
  lambda( 98)=  1.000000000000
  lambda( 99)=  1.000000000000
  lambda(100)=  1.000000000000
  lambda(101)=  1.000000000000
  lambda(102)=  1.000000000000
  lambda(103)=  1.000000000000
  lambda(104)=  1.000000000000
  lambda(105)=  1.000000000000
  lambda(106)=  1.000000000000
  lambda(107)=  1.000000000000
  lambda(108)=  1.000000000000
  lambda(109)=  1.000000000000
  lambda(110)=  1.000000000000
  lambda(111)=  1.000000000000
  lambda(112)=  1.000000000000
  lambda(113)=  1.000000000000
  lambda(114)=  1.000000000000
  lambda(115)=  1.000000000000
  lambda(116)=  1.000000000000
  lambda(117)=  1.000000000000
  lambda(118)=  1.000000000000
  lambda(119)=  1.000000000000
  lambda(120)=  1.000000000000
  lambda(121)=  1.000000000000
  lambda(122)=  1.000000000000
  lambda(123)=  1.000000000000
  lambda(124)=  1.000000000000
  lambda(125)=  1.000000000000
  lambda(126)=  1.000000000000
  lambda(127)=  1.000000000000
  lambda(128)=  1.000000000000
  lambda(129)=  1.000000000000
  lambda(130)=  1.000000000000
  lambda(131)=  1.000000000000
  lambda(132)=  1.000000000000
  lambda(133)=  1.000000000000
  lambda(134)=  1.000000000000
  lambda(135)=  1.000000000000
  lambda(136)=  1.000000000000
  lambda(137)=  1.000000000000
  lambda(138)=  1.000000000000
  lambda(139)=  1.000000000000
  lambda(140)=  1.000000000000
  lambda(141)=  1.000000000000
  lambda(142)=  1.000000000000
  lambda(143)=  1.000000000000
  lambda(144)=  1.000000000000
  lambda(145)=  1.000000000000
  lambda(146)=  1.000000000000
  lambda(147)=  1.000000000000
  lambda(148)=  1.000000000000
  lambda(149)=  1.000000000000
  lambda(150)=  1.000000000000
  lambda(151)=  1.000000000000
  lambda(152)=  1.000000000000
  lambda(153)=  1.000000000000
  lambda(154)=  1.000000000000
  lambda(155)=  1.000000000000
  lambda(156)=  1.000000000000
  lambda(157)=  1.000000000000
  lambda(158)=  1.000000000000
  lambda(159)=  1.000000000000
  lambda(160)=  1.000000000000
  lambda(161)=  1.000000000000
  lambda(162)=  1.000000000000
  lambda(163)=  1.000000000000
  lambda(164)=  1.000000000000
  lambda(165)=  1.000000000000
  lambda(166)=  1.000000000000
  lambda(167)=  1.000000000000
  lambda(168)=  1.000000000000
  lambda(169)=  1.000000000000
  lambda(170)=  1.000000000000
  lambda(171)=  1.000000000000
  lambda(172)=  1.000000000000
  lambda(173)=  1.000000000000
  lambda(174)=  1.000000000000
  lambda(175)=  1.000000000000
  lambda(176)=  1.000000000000
  lambda(177)=  1.000000000000
  lambda(178)=  1.000000000000
  lambda(179)=  1.000000000000
  lambda(180)=  1.000000000000
  lambda(181)=  1.000000000000
  lambda(182)=  1.000000000000
  lambda(183)=  1.000000000000
  lambda(184)=  1.000000000000
  lambda(185)=  1.000000000000
  lambda(186)=  1.000000000000
  lambda(187)=  1.000000000000
  lambda(188)=  1.000000000000
  lambda(189)=  1.000000000000
  lambda(190)=  1.000000000000
  lambda(191)=  1.000000000000
  lambda(192)=  1.000000000000
  lambda(193)=  1.000000000000
  lambda(194)=  1.000000000000
  lambda(195)=  1.000000000000
  lambda(196)=  1.000000000000
  lambda(197)=  1.000000000000
  lambda(198)=  1.000000000000
  lambda(199)=  1.000000000000
  lambda(200)=  1.000000000000
  lambda(201)=  1.000000000000
  lambda(202)=  1.000000000000
  lambda(203)=  1.000000000000
  lambda(204)=  1.000000000000
  lambda(205)=  1.000000000000
  lambda(206)=  1.000000000000
  lambda(207)=  1.000000000000
  lambda(208)=  1.000000000000
  lambda(209)=  1.000000000000
  lambda(210)=  1.000000000000
  lambda(211)=  1.000000000000
  lambda(212)=  1.000000000000
  lambda(213)=  1.000000000000
  lambda(214)=  1.000000000000
  lambda(215)=  1.000000000000
  lambda(216)=  1.000000000000
  lambda(217)=  1.000000000000
  lambda(218)=  1.000000000000
  lambda(219)=  1.000000000000
  lambda(220)=  1.000000000000
  lambda(221)=  1.000000000000
  lambda(222)=  1.000000000000
  lambda(223)=  1.000000000000
  lambda(224)=  1.000000000000
  lambda(225)=  1.000000000000
  lambda(226)=  1.000000000000
  lambda(227)=  1.000000000000
  lambda(228)=  1.000000000000
  lambda(229)=  1.000000000000
  lambda(230)=  1.000000000000
  lambda(231)=  1.000000000000
  lambda(232)=  1.000000000000
  lambda(233)=  1.000000000000
  lambda(234)=  1.000000000000
  lambda(235)=  1.000000000000
  lambda(236)=  1.000000000000
  lambda(237)=  1.000000000000
  lambda(238)=  1.000000000000
  lambda(239)=  1.000000000000
  lambda(240)=  1.000000000000

 K-point   5 ndimwin: 240 we want the158 leading eigenvector(s) of QPQ
  lambda(  1)= -0.000000000000
  lambda(  2)= -0.000000000000
  lambda(  3)= -0.000000000000
  lambda(  4)= -0.000000000000
  lambda(  5)= -0.000000000000
  lambda(  6)= -0.000000000000
  lambda(  7)= -0.000000000000
  lambda(  8)= -0.000000000000
  lambda(  9)= -0.000000000000
  lambda( 10)= -0.000000000000
  lambda( 11)= -0.000000000000
  lambda( 12)= -0.000000000000
  lambda( 13)= -0.000000000000
  lambda( 14)= -0.000000000000
  lambda( 15)= -0.000000000000
  lambda( 16)= -0.000000000000
  lambda( 17)= -0.000000000000
  lambda( 18)= -0.000000000000
  lambda( 19)= -0.000000000000
  lambda( 20)= -0.000000000000
  lambda( 21)= -0.000000000000
  lambda( 22)= -0.000000000000
  lambda( 23)= -0.000000000000
  lambda( 24)= -0.000000000000
  lambda( 25)= -0.000000000000
  lambda( 26)= -0.000000000000
  lambda( 27)= -0.000000000000
  lambda( 28)= -0.000000000000
  lambda( 29)= -0.000000000000
  lambda( 30)= -0.000000000000
  lambda( 31)= -0.000000000000
  lambda( 32)= -0.000000000000
  lambda( 33)=  0.000000000000
  lambda( 34)=  0.000000000000
  lambda( 35)=  0.000000000000
  lambda( 36)=  0.000000000000
  lambda( 37)=  0.000000000000
  lambda( 38)=  0.000000000000
  lambda( 39)=  0.000000000000
  lambda( 40)=  0.000000000000
  lambda( 41)=  0.000000000000
  lambda( 42)=  0.000000000000
  lambda( 43)=  0.000000000000
  lambda( 44)=  0.000000000000
  lambda( 45)=  0.000000000000
  lambda( 46)=  0.000000000000
  lambda( 47)=  0.000000000000
  lambda( 48)=  0.000000000000
  lambda( 49)=  0.000000000000
  lambda( 50)=  0.000000000000
  lambda( 51)=  0.000000000000
  lambda( 52)=  0.000000000000
  lambda( 53)=  0.000000000000
  lambda( 54)=  0.000000000000
  lambda( 55)=  0.000000000000
  lambda( 56)=  0.000000000000
  lambda( 57)=  0.000000000000
  lambda( 58)=  0.000000000000
  lambda( 59)=  0.000000000000
  lambda( 60)=  0.000000000000
  lambda( 61)=  0.000000000000
  lambda( 62)=  0.000000000000
  lambda( 63)=  0.000000000000
  lambda( 64)=  0.000000000000
  lambda( 65)=  0.004785815216
  lambda( 66)=  0.005105079384
  lambda( 67)=  0.009393521059
  lambda( 68)=  0.009933303828
  lambda( 69)=  0.010171389503
  lambda( 70)=  0.016111693284
  lambda( 71)=  0.016219717250
  lambda( 72)=  0.023939826860
  lambda( 73)=  0.029066104740
  lambda( 74)=  0.029132526054
  lambda( 75)=  0.039875700719
  lambda( 76)=  0.042315992349
  lambda( 77)=  0.044985827628
  lambda( 78)=  0.050386732535
  lambda( 79)=  0.052056776717
  lambda( 80)=  0.068715904610
  lambda( 81)=  0.070759673034
  lambda( 82)=  0.082186151587
  lambda( 83)=  1.000000000000
  lambda( 84)=  1.000000000000
  lambda( 85)=  1.000000000000
  lambda( 86)=  1.000000000000
  lambda( 87)=  1.000000000000
  lambda( 88)=  1.000000000000
  lambda( 89)=  1.000000000000
  lambda( 90)=  1.000000000000
  lambda( 91)=  1.000000000000
  lambda( 92)=  1.000000000000
  lambda( 93)=  1.000000000000
  lambda( 94)=  1.000000000000
  lambda( 95)=  1.000000000000
  lambda( 96)=  1.000000000000
  lambda( 97)=  1.000000000000
  lambda( 98)=  1.000000000000
  lambda( 99)=  1.000000000000
  lambda(100)=  1.000000000000
  lambda(101)=  1.000000000000
  lambda(102)=  1.000000000000
  lambda(103)=  1.000000000000
  lambda(104)=  1.000000000000
  lambda(105)=  1.000000000000
  lambda(106)=  1.000000000000
  lambda(107)=  1.000000000000
  lambda(108)=  1.000000000000
  lambda(109)=  1.000000000000
  lambda(110)=  1.000000000000
  lambda(111)=  1.000000000000
  lambda(112)=  1.000000000000
  lambda(113)=  1.000000000000
  lambda(114)=  1.000000000000
  lambda(115)=  1.000000000000
  lambda(116)=  1.000000000000
  lambda(117)=  1.000000000000
  lambda(118)=  1.000000000000
  lambda(119)=  1.000000000000
  lambda(120)=  1.000000000000
  lambda(121)=  1.000000000000
  lambda(122)=  1.000000000000
  lambda(123)=  1.000000000000
  lambda(124)=  1.000000000000
  lambda(125)=  1.000000000000
  lambda(126)=  1.000000000000
  lambda(127)=  1.000000000000
  lambda(128)=  1.000000000000
  lambda(129)=  1.000000000000
  lambda(130)=  1.000000000000
  lambda(131)=  1.000000000000
  lambda(132)=  1.000000000000
  lambda(133)=  1.000000000000
  lambda(134)=  1.000000000000
  lambda(135)=  1.000000000000
  lambda(136)=  1.000000000000
  lambda(137)=  1.000000000000
  lambda(138)=  1.000000000000
  lambda(139)=  1.000000000000
  lambda(140)=  1.000000000000
  lambda(141)=  1.000000000000
  lambda(142)=  1.000000000000
  lambda(143)=  1.000000000000
  lambda(144)=  1.000000000000
  lambda(145)=  1.000000000000
  lambda(146)=  1.000000000000
[...]
  WF centre and spread   86  (  1.742218,  1.021083,  3.346332 )     1.98390960
  WF centre and spread   87  (  5.198177,  0.995227, -0.087600 )     1.97906187
  WF centre and spread   88  (  5.199672,  0.984937,  0.036208 )     1.98359767
  WF centre and spread   89  (  5.198920,  1.019806,  0.034866 )     1.98415592
  WF centre and spread   90  (  5.197648,  0.996389,  3.468728 )     1.97872506
  WF centre and spread   91  (  5.199173,  0.986110,  3.344866 )     1.98365590
  WF centre and spread   92  (  5.198417,  1.021083,  3.346332 )     1.98390971
  WF centre and spread   93  ( -0.002026,  4.003620, -0.075643 )     1.97344821
  WF centre and spread   94  ( -0.002753,  3.992134,  0.046612 )     1.98049558
  WF centre and spread   95  ( -0.001026,  4.022083,  0.047472 )     1.98076459
  WF centre and spread   96  ( -0.001422,  4.003963,  3.454408 )     1.97323659
  WF centre and spread   97  ( -0.001968,  3.992475,  3.332129 )     1.98058120
  WF centre and spread   98  ( -0.000352,  4.022590,  3.331331 )     1.98074763
  WF centre and spread   99  (  3.470317,  4.073533, -0.019457 )     1.93179735
  WF centre and spread  100  (  3.470317,  4.054099,  0.104254 )     1.96939677
  WF centre and spread  101  (  3.470317,  4.092354,  0.102726 )     1.95502387
  WF centre and spread  102  (  3.470317,  4.072759,  3.396587 )     1.93173539
  WF centre and spread  103  (  3.470317,  4.053378,  3.272902 )     1.96940440
  WF centre and spread  104  (  3.470317,  4.091968,  3.274585 )     1.95510474
  WF centre and spread  105  (  8.669178,  0.995134, -0.097135 )     1.98122745
  WF centre and spread  106  (  8.667717,  0.983008,  0.023886 )     1.98432034
  WF centre and spread  107  (  8.669597,  1.014857,  0.022330 )     1.98504450
  WF centre and spread  108  (  8.669266,  0.995190,  3.479714 )     1.98075382
  WF centre and spread  109  (  8.667881,  0.983079,  3.358707 )     1.98414093
  WF centre and spread  110  (  8.669713,  1.014944,  3.360294 )     1.98476547
  WF centre and spread  111  (  6.942661,  4.003620, -0.075643 )     1.97344807
  WF centre and spread  112  (  6.943387,  3.992134,  0.046612 )     1.98049572
  WF centre and spread  113  (  6.941660,  4.022083,  0.047472 )     1.98076462
  WF centre and spread  114  (  6.942057,  4.003963,  3.454408 )     1.97323686
  WF centre and spread  115  (  6.942602,  3.992475,  3.332129 )     1.98058116
  WF centre and spread  116  (  6.940986,  4.022590,  3.331331 )     1.98074765
  WF centre and spread  117  (  5.146392,  6.976619, -0.019613 )     1.93306574
  WF centre and spread  118  (  5.146180,  6.966088,  0.103211 )     1.95782733
  WF centre and spread  119  (  5.151588,  6.995257,  0.103960 )     1.96549831
  WF centre and spread  120  (  5.147057,  6.977002,  3.396747 )     1.93300600
  WF centre and spread  121  (  5.146554,  6.966376,  3.274060 )     1.95789444
  WF centre and spread  122  (  5.152176,  6.995526,  3.273234 )     1.96553169
  WF centre and spread  123  (  1.794242,  6.976619, -0.019613 )     1.93306598
  WF centre and spread  124  (  1.794454,  6.966088,  0.103211 )     1.95782736
  WF centre and spread  125  (  1.789047,  6.995257,  0.103960 )     1.96549828
  WF centre and spread  126  (  1.793578,  6.977002,  3.396747 )     1.93300593
  WF centre and spread  127  (  1.794080,  6.966377,  3.274060 )     1.95789437
  WF centre and spread  128  (  1.788458,  6.995526,  3.273234 )     1.96553168
  WF centre and spread  129  ( -1.734861,  7.017997, -0.087555 )     1.97901310
  WF centre and spread  130  ( -1.731635,  7.002827,  0.035546 )     1.98450422
  WF centre and spread  131  ( -1.733535,  7.036047,  0.035487 )     1.98339739
  WF centre and spread  132  ( -1.733587,  7.017882,  3.468682 )     1.97868470
  WF centre and spread  133  ( -1.730310,  7.002669,  3.345584 )     1.98440657
  WF centre and spread  134  ( -1.732240,  7.035843,  3.345656 )     1.98330206
  WF centre and spread  135  ( 12.152725,  0.995134, -0.097135 )     1.98122748
  WF centre and spread  136  ( 12.154186,  0.983008,  0.023886 )     1.98432024
  WF centre and spread  137  ( 12.152306,  1.014857,  0.022330 )     1.98504440
  WF centre and spread  138  ( 12.152637,  0.995190,  3.479714 )     1.98075403
  WF centre and spread  139  ( 12.154020,  0.983079,  3.358707 )     1.98414099
  WF centre and spread  140  ( 12.152190,  1.014944,  3.360294 )     1.98476559
  WF centre and spread  141  ( 10.410951,  4.012079, -0.097064 )     1.98121728
  WF centre and spread  142  ( 10.410951,  3.999115,  0.021566 )     1.98483816
  WF centre and spread  143  ( 10.410951,  4.034080,  0.024582 )     1.98460564
  WF centre and spread  144  ( 10.410952,  4.011987,  3.479642 )     1.98075694
  WF centre and spread  145  ( 10.410951,  3.998983,  3.361074 )     1.98450572
  WF centre and spread  146  ( 10.410951,  4.033881,  3.357995 )     1.98447126
  WF centre and spread  147  (  8.675495,  7.017997, -0.087555 )     1.97901328
  WF centre and spread  148  (  8.672269,  7.002827,  0.035546 )     1.98450427
  WF centre and spread  149  (  8.674170,  7.036047,  0.035487 )     1.98339737
  WF centre and spread  150  (  8.674221,  7.017882,  3.468682 )     1.97868489
  WF centre and spread  151  (  8.670944,  7.002669,  3.345584 )     1.98440682
  WF centre and spread  152  (  8.672874,  7.035843,  3.345656 )     1.98330216
  WF centre and spread  153  (  6.947465, 10.010865, -0.087538 )     1.97881263
  WF centre and spread  154  (  6.944258,  9.997548,  0.034851 )     1.98318636
  WF centre and spread  155  (  6.944373, 10.030604,  0.036174 )     1.98481963
  WF centre and spread  156  (  6.946727, 10.009833,  3.468664 )     1.97849149
  WF centre and spread  157  (  6.943388,  9.996495,  3.346354 )     1.98293492
  WF centre and spread  158  (  6.943619, 10.029557,  3.344896 )     1.98487013
  WF centre and spread  159  (  3.470317, 10.017730, -0.075556 )     1.97291980
  WF centre and spread  160  (  3.470317, 10.004771,  0.047886 )     1.98048906
  WF centre and spread  161  (  3.470317, 10.037660,  0.046122 )     1.98096136
  WF centre and spread  162  (  3.470317, 10.017033,  3.454320 )     1.97271596
  WF centre and spread  163  (  3.470317, 10.003942,  3.330948 )     1.98042127
  WF centre and spread  164  (  3.470317, 10.036807,  3.332590 )     1.98109457
  WF centre and spread  165  ( -0.006830, 10.010865, -0.087538 )     1.97881253
  WF centre and spread  166  ( -0.003624,  9.997548,  0.034851 )     1.98318641
  WF centre and spread  167  ( -0.003739, 10.030604,  0.036174 )     1.98481974
  WF centre and spread  168  ( -0.006092, 10.009833,  3.468664 )     1.97849146
  WF centre and spread  169  ( -0.002755,  9.996495,  3.346354 )     1.98293475
  WF centre and spread  170  ( -0.002984, 10.029557,  3.344896 )     1.98487009
  WF centre and spread  171  ( -3.470317, 10.015026, -0.095979 )     1.97574566
  WF centre and spread  172  ( -3.470317, 10.001945,  0.026299 )     1.98565311
  WF centre and spread  173  ( -3.470317, 10.036512,  0.026264 )     1.98600391
  WF centre and spread  174  ( -3.470317, 10.015029,  3.477759 )     1.97532744
  WF centre and spread  175  ( -3.470317, 10.001930,  3.355594 )     1.98547328
  WF centre and spread  176  ( -3.470317, 10.036526,  3.355630 )     1.98582303
  Sum of centres and spreads (624.657075,889.595085,297.405669 )   335.16957019
 
         Spreads (Ang^2)       Omega I      =   318.867851255
        ================       Omega D      =     0.000186353
                               Omega OD     =    16.301531798
    Final Spread (Ang^2)       Omega Total  =   335.169569406
 ------------------------------------------------------------------------------
 Final centres (translated to home cell for writing xyz file)
  WF centre    1  (  3.470317,  6.009590,  1.687599 )
  WF centre    2  (  3.470317,  6.038714,  1.688009 )
  WF centre    3  (  3.470317,  5.982734,  1.688008 )
  WF centre    4  (  3.470317,  6.118587,  1.687675 )
  WF centre    5  (  3.470317,  5.904699,  1.687675 )
  WF centre    6  (  0.000814, -0.003630,  1.690749 )
  WF centre    7  ( -0.000101,  0.027353,  1.690861 )
  WF centre    8  ( -0.000842, -0.026917,  1.690824 )
  WF centre    9  ( -0.000680,  0.134421,  1.690747 )
  WF centre   10  (  0.004563, -0.132590,  1.690758 )
  WF centre   11  (  3.470317, -0.014418,  1.689689 )
  WF centre   12  (  3.470317,  0.016223,  1.690092 )
  WF centre   13  (  3.470317, -0.039726,  1.690085 )
  WF centre   14  (  3.470317,  0.121113,  1.689803 )
  WF centre   15  (  3.470317, -0.147870,  1.689834 )
  WF centre   16  ( -1.783815,  2.974277,  1.689886 )
  WF centre   17  ( -1.778175,  3.002063,  1.690103 )
  WF centre   18  ( -1.787337,  2.953623,  1.690257 )
  WF centre   19  ( -1.777008,  3.108679,  1.689979 )
  WF centre   20  ( -1.797652,  2.845747,  1.689983 )
  WF centre   21  (  1.714590,  2.995820,  1.688150 )
  WF centre   22  (  1.718587,  3.021373,  1.688540 )
  WF centre   23  (  1.715059,  2.968299,  1.688750 )
  WF centre   24  (  1.724288,  3.134326,  1.688324 )
  WF centre   25  (  1.711826,  2.859491,  1.688349 )
  WF centre   26  (  6.939820, -0.003630,  1.690749 )
  WF centre   27  (  6.940735,  0.027353,  1.690861 )
  WF centre   28  (  6.941476, -0.026917,  1.690825 )
  WF centre   29  (  6.941314,  0.134421,  1.690747 )
  WF centre   30  (  6.936071, -0.132590,  1.690758 )
  WF centre   31  (  5.226044,  2.995820,  1.688150 )
  WF centre   32  (  5.222047,  3.021373,  1.688540 )
  WF centre   33  (  5.225576,  2.968299,  1.688750 )
  WF centre   34  (  5.216347,  3.134326,  1.688324 )
  WF centre   35  (  5.228808,  2.859491,  1.688349 )
  WF centre   36  ( -0.016260,  5.993863,  1.688140 )
  WF centre   37  ( -0.016005,  6.026388,  1.688634 )
  WF centre   38  ( -0.020499,  5.973775,  1.688663 )
  WF centre   39  ( -0.018148,  6.140188,  1.688340 )
  WF centre   40  ( -0.016723,  5.865568,  1.688335 )
  WF centre   41  ( -3.470317,  6.008787,  1.690760 )
  WF centre   42  ( -3.470317,  6.036717,  1.690799 )
  WF centre   43  ( -3.470317,  5.983626,  1.690872 )
  WF centre   44  ( -3.470317,  6.149728,  1.690766 )
  WF centre   45  ( -3.470317,  5.880062,  1.690743 )
  WF centre   46  ( 10.410951,  0.053635,  1.689870 )
  WF centre   47  ( 10.410951,  0.086204,  1.690325 )
  WF centre   48  ( 10.410951,  0.023630,  1.690022 )
  WF centre   49  ( 10.410951,  0.198843,  1.690001 )
  WF centre   50  ( 10.410951, -0.074878,  1.689989 )
  WF centre   51  (  8.724449,  2.974277,  1.689886 )
  WF centre   52  (  8.718809,  3.002063,  1.690103 )
  WF centre   53  (  8.727971,  2.953623,  1.690257 )
  WF centre   54  (  8.717643,  3.108679,  1.689979 )
  WF centre   55  (  8.738286,  2.845747,  1.689983 )
  WF centre   56  (  6.956894,  5.993863,  1.688140 )
  WF centre   57  (  6.956639,  6.026388,  1.688634 )
  WF centre   58  (  6.961133,  5.973775,  1.688663 )
  WF centre   59  (  6.958782,  6.140188,  1.688340 )
  WF centre   60  (  6.957357,  5.865568,  1.688335 )
  WF centre   61  (  5.200369,  9.034278,  1.688140 )
  WF centre   62  (  5.205817,  9.066758,  1.688751 )
  WF centre   63  (  5.204970,  9.007679,  1.688511 )
  WF centre   64  (  5.202629,  9.176971,  1.688366 )
  WF centre   65  (  5.209878,  8.899196,  1.688342 )
  WF centre   66  (  1.740266,  9.034278,  1.688140 )
  WF centre   67  (  1.734817,  9.066758,  1.688751 )
  WF centre   68  (  1.735664,  9.007679,  1.688511 )
  WF centre   69  (  1.738005,  9.176971,  1.688366 )
  WF centre   70  (  1.730756,  8.899196,  1.688342 )
  WF centre   71  ( -1.744739,  9.018564,  1.689697 )
  WF centre   72  ( -1.745910,  9.048927,  1.690078 )
  WF centre   73  ( -1.744664,  8.994961,  1.690079 )
  WF centre   74  ( -1.743100,  9.163303,  1.689834 )
  WF centre   75  ( -1.754121,  8.888560,  1.689816 )
  WF centre   76  ( -5.195896,  9.018564,  1.689698 )
  WF centre   77  ( -5.194724,  9.048927,  1.690078 )
  WF centre   78  ( -5.195971,  8.994961,  1.690079 )
  WF centre   79  ( -5.197535,  9.163303,  1.689834 )
  WF centre   80  ( -5.186513,  8.888560,  1.689816 )
  WF centre   81  (  1.742457,  0.995227, -0.087600 )
  WF centre   82  (  1.740962,  0.984937,  0.036208 )
  WF centre   83  (  1.741714,  1.019806,  0.034866 )
  WF centre   84  (  1.742987,  0.996389,  3.468728 )
  WF centre   85  (  1.741461,  0.986110,  3.344866 )
  WF centre   86  (  1.742218,  1.021083,  3.346332 )
  WF centre   87  (  5.198177,  0.995227, -0.087600 )
  WF centre   88  (  5.199672,  0.984937,  0.036208 )
  WF centre   89  (  5.198920,  1.019806,  0.034866 )
  WF centre   90  (  5.197648,  0.996389,  3.468728 )
  WF centre   91  (  5.199173,  0.986110,  3.344866 )
  WF centre   92  (  5.198417,  1.021083,  3.346332 )
  WF centre   93  ( -0.002026,  4.003620, -0.075643 )
  WF centre   94  ( -0.002753,  3.992134,  0.046612 )
  WF centre   95  ( -0.001026,  4.022083,  0.047472 )
  WF centre   96  ( -0.001422,  4.003963,  3.454408 )
  WF centre   97  ( -0.001968,  3.992475,  3.332129 )
  WF centre   98  ( -0.000352,  4.022590,  3.331331 )
  WF centre   99  (  3.470317,  4.073533, -0.019457 )
  WF centre  100  (  3.470317,  4.054099,  0.104254 )
  WF centre  101  (  3.470317,  4.092354,  0.102726 )
  WF centre  102  (  3.470317,  4.072759,  3.396587 )
  WF centre  103  (  3.470317,  4.053378,  3.272902 )
  WF centre  104  (  3.470317,  4.091968,  3.274585 )
  WF centre  105  (  8.669178,  0.995134, -0.097135 )
  WF centre  106  (  8.667717,  0.983008,  0.023886 )
  WF centre  107  (  8.669597,  1.014857,  0.022330 )
  WF centre  108  (  8.669266,  0.995190,  3.479714 )
  WF centre  109  (  8.667881,  0.983079,  3.358707 )
  WF centre  110  (  8.669713,  1.014944,  3.360294 )
  WF centre  111  (  6.942661,  4.003620, -0.075643 )
  WF centre  112  (  6.943387,  3.992134,  0.046612 )
  WF centre  113  (  6.941660,  4.022083,  0.047472 )
  WF centre  114  (  6.942057,  4.003963,  3.454408 )
  WF centre  115  (  6.942602,  3.992475,  3.332129 )
  WF centre  116  (  6.940986,  4.022590,  3.331331 )
  WF centre  117  (  5.146392,  6.976619, -0.019613 )
  WF centre  118  (  5.146180,  6.966088,  0.103211 )
  WF centre  119  (  5.151588,  6.995257,  0.103960 )
  WF centre  120  (  5.147057,  6.977002,  3.396747 )
  WF centre  121  (  5.146554,  6.966376,  3.274060 )
  WF centre  122  (  5.152176,  6.995526,  3.273234 )
  WF centre  123  (  1.794242,  6.976619, -0.019613 )
  WF centre  124  (  1.794454,  6.966088,  0.103211 )
  WF centre  125  (  1.789047,  6.995257,  0.103960 )
  WF centre  126  (  1.793578,  6.977002,  3.396747 )
  WF centre  127  (  1.794080,  6.966377,  3.274060 )
  WF centre  128  (  1.788458,  6.995526,  3.273234 )
  WF centre  129  ( -1.734861,  7.017997, -0.087555 )
  WF centre  130  ( -1.731635,  7.002827,  0.035546 )
  WF centre  131  ( -1.733535,  7.036047,  0.035487 )
  WF centre  132  ( -1.733587,  7.017882,  3.468682 )
  WF centre  133  ( -1.730310,  7.002669,  3.345584 )
  WF centre  134  ( -1.732240,  7.035843,  3.345656 )
  WF centre  135  ( 12.152725,  0.995134, -0.097135 )
  WF centre  136  ( 12.154186,  0.983008,  0.023886 )
  WF centre  137  ( 12.152306,  1.014857,  0.022330 )
  WF centre  138  ( 12.152637,  0.995190,  3.479714 )
  WF centre  139  ( 12.154020,  0.983079,  3.358707 )
  WF centre  140  ( 12.152190,  1.014944,  3.360294 )
  WF centre  141  ( 10.410951,  4.012079, -0.097064 )
  WF centre  142  ( 10.410951,  3.999115,  0.021566 )
  WF centre  143  ( 10.410951,  4.034080,  0.024582 )
  WF centre  144  ( 10.410952,  4.011987,  3.479642 )
  WF centre  145  ( 10.410951,  3.998983,  3.361074 )
  WF centre  146  ( 10.410951,  4.033881,  3.357995 )
  WF centre  147  (  8.675495,  7.017997, -0.087555 )
  WF centre  148  (  8.672269,  7.002827,  0.035546 )
  WF centre  149  (  8.674170,  7.036047,  0.035487 )
  WF centre  150  (  8.674221,  7.017882,  3.468682 )
  WF centre  151  (  8.670944,  7.002669,  3.345584 )
  WF centre  152  (  8.672874,  7.035843,  3.345656 )
  WF centre  153  (  6.947465, 10.010865, -0.087538 )
  WF centre  154  (  6.944258,  9.997548,  0.034851 )
  WF centre  155  (  6.944373, 10.030604,  0.036174 )
  WF centre  156  (  6.946727, 10.009833,  3.468664 )
  WF centre  157  (  6.943388,  9.996495,  3.346354 )
  WF centre  158  (  6.943619, 10.029557,  3.344896 )
  WF centre  159  (  3.470317, 10.017730, -0.075556 )
  WF centre  160  (  3.470317, 10.004771,  0.047886 )
  WF centre  161  (  3.470317, 10.037660,  0.046122 )
  WF centre  162  (  3.470317, 10.017033,  3.454320 )
  WF centre  163  (  3.470317, 10.003942,  3.330948 )
  WF centre  164  (  3.470317, 10.036807,  3.332590 )
  WF centre  165  ( -0.006830, 10.010865, -0.087538 )
  WF centre  166  ( -0.003624,  9.997548,  0.034851 )
  WF centre  167  ( -0.003739, 10.030604,  0.036174 )
  WF centre  168  ( -0.006092, 10.009833,  3.468664 )
  WF centre  169  ( -0.002755,  9.996495,  3.346354 )
  WF centre  170  ( -0.002984, 10.029557,  3.344896 )
  WF centre  171  ( -3.470317, 10.015026, -0.095979 )
  WF centre  172  ( -3.470317, 10.001945,  0.026299 )
  WF centre  173  ( -3.470317, 10.036512,  0.026264 )
  WF centre  174  ( -3.470317, 10.015029,  3.477759 )
  WF centre  175  ( -3.470317, 10.001930,  3.355594 )
  WF centre  176  ( -3.470317, 10.036526,  3.355630 )
 ------------------------------------------------------------------------------
 

 Wannier centres written to file nbsefe.down_centres.xyz
  
  Omega Invariant:   1-s^2 =   318.867851254 (Ang^2)
                   -2log s =   325.389609381 (Ang^2)
                    acos^2 =   323.172823656 (Ang^2)
 Time for wannierise           42.582 (sec)

 Writing checkpoint file nbsefe.down.chk... done

 *---------------------------------------------------------------------------*
 |                               PLOTTING                                    |
 *---------------------------------------------------------------------------*
 
   19 lattice points in Wigner-Seitz supercell:

      vector  -2  -2   0   degeneracy:  2
      vector  -2  -1   0   degeneracy:  1
      vector  -2   0   0   degeneracy:  2
      vector  -1  -2   0   degeneracy:  1
      vector  -1  -1   0   degeneracy:  1
      vector  -1   0   0   degeneracy:  1
      vector  -1   1   0   degeneracy:  1
      vector   0  -2   0   degeneracy:  2
      vector   0  -1   0   degeneracy:  1
      vector   0   0   0   degeneracy:  1
      vector   0   1   0   degeneracy:  1
      vector   0   2   0   degeneracy:  2
      vector   1  -1   0   degeneracy:  1
      vector   1   0   0   degeneracy:  1
      vector   1   1   0   degeneracy:  1
      vector   1   2   0   degeneracy:  1
      vector   2   0   0   degeneracy:  2
      vector   2   1   0   degeneracy:  1
      vector   2   2   0   degeneracy:  2
  tot =       16.000
  mp_grid product =           16
 
 Calculating interpolated band-structure
 
 Time to calculate interpolated band structure      21.965 (sec)
 
 Time for plotting             25.167 (sec)
 Total Execution Time         186.377 (sec)

 *===========================================================================*
 |                             TIMING INFORMATION                            |
 *===========================================================================*
 |    Tag                                                Ncalls      Time (s)|
 |---------------------------------------------------------------------------|
 |kmesh: get                                        :         1         0.017|
 |overlap: allocate                                 :         1         0.007|
 |overlap: read                                     :         1        35.282|
 |dis: main                                         :         1        83.230|
 |wann: main                                        :         1        42.582|
 |plot: main                                        :         1        25.167|
 *---------------------------------------------------------------------------*
 
 All done: wannier90 exiting
