 
             +---------------------------------------------------+
             |                                                   |
             |                   WANNIER90                       |
             |                                                   |
             +---------------------------------------------------+
             |                                                   |
             |        Welcome to the Maximally-Localized         |
             |        Generalized Wannier Functions code         |
             |            http://www.wannier.org                 |
             |                                                   |
             |                                                   |
             |  Wannier90 Developer Group:                       |
             |    Giovanni Pizzi    (EPFL)                       |
             |    Valerio Vitale    (Cambridge)                  |
             |    David Vanderbilt  (Rutgers University)         |
             |    Nicola Marzari    (EPFL)                       |
             |    Ivo Souza         (Universidad del Pais Vasco) |
             |    Arash A. Mostofi  (Imperial College London)    |
             |    Jonathan R. Yates (University of Oxford)       |
             |                                                   |
             |  For the full list of Wannier90 3.x authors,      |
             |  please check the code documentation and the      |
             |  README on the GitHub page of the code            |
             |                                                   |
             |                                                   |
             |  Please cite                                      |
             |                                                   |
             |  [ref] "Wannier90 as a community code:            |
             |        new features and applications",            |
             |        G. Pizzi et al., J. Phys. Cond. Matt. 32,  |
             |        165902 (2020).                             |
             |        http://doi.org/10.1088/1361-648X/ab51ff    |
             |                                                   |
             |  in any publications arising from the use of      |
             |  this code. For the method please cite            |
             |                                                   |
             |  [ref] "Maximally Localized Generalised Wannier   |
             |         Functions for Composite Energy Bands"     |
             |         N. Marzari and D. Vanderbilt              |
             |         Phys. Rev. B 56 12847 (1997)              |
             |                                                   |
             |  [ref] "Maximally Localized Wannier Functions     |
             |         for Entangled Energy Bands"               |
             |         I. Souza, N. Marzari and D. Vanderbilt    |
             |         Phys. Rev. B 65 035109 (2001)             |
             |                                                   |
             |                                                   |
             | Copyright (c) 1996-2020                           |
             |        The Wannier90 Developer Group and          |
             |        individual contributors                    |
             |                                                   |
             |      Release: 3.1.0        5th March    2020      |
             |                                                   |
             | This program is free software; you can            |
             | redistribute it and/or modify it under the terms  |
             | of the GNU General Public License as published by |
             | the Free Software Foundation; either version 2 of |
             | the License, or (at your option) any later version|
             |                                                   |
             | This program is distributed in the hope that it   |
             | will be useful, but WITHOUT ANY WARRANTY; without |
             | even the implied warranty of MERCHANTABILITY or   |
             | FITNESS FOR A PARTICULAR PURPOSE. See the GNU     |
             | General Public License for more details.          |
             |                                                   |
             | You should have received a copy of the GNU General|
             | Public License along with this program; if not,   |
             | write to the Free Software Foundation, Inc.,      |
             | 675 Mass Ave, Cambridge, MA 02139, USA.           |
             |                                                   |
             +---------------------------------------------------+
             |    Execution started on 12Jul2023 at 13:49:00     |
             +---------------------------------------------------+
 
 ******************************************************************************
 * -> Using CODATA 2006 constant values                                       *
 *    (http://physics.nist.gov/cuu/Constants/index.html)                      *
 * -> Using Bohr value from CODATA                                            *
 ******************************************************************************
 

 Running in parallel on  80 CPUs

 
                                    ------
                                    SYSTEM
                                    ------
 
                              Lattice Vectors (Ang)
                    a_1    13.881268   0.000000   0.000000
                    a_2    -6.940634  12.021531   0.000000
                    a_3     0.000000   0.000000  21.390217
 
                   Unit Cell Volume:    3569.47318  (Ang^3)
 
                        Reciprocal-Space Vectors (Ang^-1)
                    b_1     0.452638   0.261330   0.000000
                    b_2     0.000000   0.522661   0.000000
                    b_3     0.000000   0.000000   0.293741
  
 *----------------------------------------------------------------------------*
 |   Site       Fractional Coordinate          Cartesian Coordinate (Ang)     |
 +----------------------------------------------------------------------------+
 | Cr   1   0.50000   0.50000   0.07891   |    3.47032   6.01077   1.68784    |
 | Nb   1   0.00001  -0.00001   0.07905   |    0.00018  -0.00010   1.69083    |
 | Nb   2   0.24956  -0.00087   0.07900   |    3.47032  -0.01048   1.68992    |
 | Nb   3  -0.00454   0.24773   0.07901   |   -1.78244   2.97809   1.69007    |
 | Nb   4   0.24833   0.24919   0.07894   |    1.71756   2.99567   1.68844    |
 | Nb   5   0.49998  -0.00001   0.07905   |    6.94046  -0.00010   1.69083    |
 | Nb   6   0.50086   0.24919   0.07894   |    5.22308   2.99567   1.68844    |
 | Nb   7   0.24833   0.49914   0.07894   |   -0.01722   6.00038   1.68844    |
 | Nb   8   0.00001   0.50002   0.07905   |   -3.47032   6.01097   1.69083    |
 | Nb   9   0.75227   0.00454   0.07901   |   10.41095   0.05459   1.69007    |
 | Nb  10   0.75227   0.24773   0.07901   |    8.72307   2.97809   1.69007    |
 | Nb  11   0.75081   0.49914   0.07894   |    6.95785   6.00038   1.68844    |
 | Nb  12   0.75081   0.75167   0.07894   |    5.20509   9.03625   1.68844    |
 | Nb  13   0.50086   0.75167   0.07894   |    1.73554   9.03625   1.68844    |
 | Nb  14   0.24956   0.75044   0.07900   |   -1.74423   9.02139   1.68992    |
 | Nb  15   0.00087   0.75044   0.07900   |   -5.19640   9.02139   1.68992    |
 | Se   1   0.16703   0.08312   0.00028   |    1.74164   0.99924   0.00596    |
 | Se   2   0.16712   0.08322   0.15779   |    1.74219   1.00048   3.37522    |
 | Se   3   0.41609   0.08312   0.00028   |    5.19900   0.99924   0.00596    |
 | Se   4   0.41611   0.08322   0.15779   |    5.19844   1.00048   3.37522    |
 | Se   5   0.16657   0.33328   0.00076   |   -0.00101   4.00659   0.01620    |
 | Se   6   0.16664   0.33332   0.15720   |   -0.00027   4.00702   3.36259    |
 | Se   7   0.41923   0.33846   0.00313   |    3.47032   4.06881   0.06688    |
 | Se   8   0.41920   0.33840   0.15476   |    3.47032   4.06813   3.31035    |
 | Se   9   0.66602   0.08301  -0.00016   |    8.66903   0.99789  -0.00348    |
 | Se  10   0.66603   0.08301   0.15830   |    8.66913   0.99795   3.38612    |
 | Se  11   0.66672   0.33328   0.00076   |    6.94165   4.00659   0.01620    |
 | Se  12   0.66668   0.33332   0.15720   |    6.94090   4.00702   3.36259    |
 | Se  13   0.66154   0.58077   0.00313   |    5.15210   6.98175   0.06688    |
 | Se  14   0.66160   0.58080   0.15476   |    5.15269   6.98208   3.31035    |
 | Se  15   0.41923   0.58077   0.00313   |    1.78853   6.98175   0.06688    |
 | Se  16   0.41920   0.58080   0.15476   |    1.78795   6.98208   3.31035    |
 | Se  17   0.16703   0.58391   0.00028   |   -1.73413   7.01945   0.00596    |
 | Se  18   0.16712   0.58389   0.15779   |   -1.73277   7.01931   3.37522    |
 | Se  19   0.91699   0.08301  -0.00016   |   12.15288   0.99789  -0.00348    |
 | Se  20   0.91699   0.08301   0.15830   |   12.15277   0.99795   3.38612    |
 | Se  21   0.91699   0.33398  -0.00016   |   10.41095   4.01499  -0.00348    |
 | Se  22   0.91699   0.33397   0.15830   |   10.41095   4.01487   3.38612    |
 | Se  23   0.91688   0.58391   0.00028   |    8.67477   7.01945   0.00596    |
 | Se  24   0.91678   0.58389   0.15779   |    8.67341   7.01931   3.37522    |
 | Se  25   0.91688   0.83297   0.00028   |    6.94609  10.01361   0.00596    |
 | Se  26   0.91678   0.83288   0.15779   |    6.94529  10.01250   3.37522    |
 | Se  27   0.66672   0.83343   0.00076   |    3.47032  10.01911   0.01620    |
 | Se  28   0.66668   0.83336   0.15720   |    3.47032  10.01825   3.36259    |
 | Se  29   0.41609   0.83297   0.00028   |   -0.00545  10.01361   0.00596    |
 | Se  30   0.41611   0.83288   0.15779   |   -0.00465  10.01250   3.37522    |
 | Se  31   0.16667   0.83333  -0.00009   |   -3.47032  10.01794  -0.00183    |
 | Se  32   0.16667   0.83333   0.15819   |   -3.47032  10.01794   3.38372    |
 *----------------------------------------------------------------------------*
                                -----------
                                PROJECTIONS
                                -----------
  
 +----------------------------------------------------------------------------+
 |     Frac. Coord.   l mr  r        z-axis               x-axis          Z/a |
 +----------------------------------------------------------------------------+
 |  0.50  0.50  0.08  2  1  1  0.000  0.000  1.000  1.000  0.000  0.000   1.0 |
 |  0.50  0.50  0.08  2  2  1  0.000  0.000  1.000  1.000  0.000  0.000   1.0 |
 |  0.50  0.50  0.08  2  3  1  0.000  0.000  1.000  1.000  0.000  0.000   1.0 |
 |  0.50  0.50  0.08  2  4  1  0.000  0.000  1.000  1.000  0.000  0.000   1.0 |
 |  0.50  0.50  0.08  2  5  1  0.000  0.000  1.000  1.000  0.000  0.000   1.0 |
 |  0.00 -0.00  0.08  2  1  1  0.000  0.000  1.000  1.000  0.000  0.000   1.0 |
 |  0.00 -0.00  0.08  2  2  1  0.000  0.000  1.000  1.000  0.000  0.000   1.0 |
 |  0.00 -0.00  0.08  2  3  1  0.000  0.000  1.000  1.000  0.000  0.000   1.0 |
 |  0.00 -0.00  0.08  2  4  1  0.000  0.000  1.000  1.000  0.000  0.000   1.0 |
 |  0.00 -0.00  0.08  2  5  1  0.000  0.000  1.000  1.000  0.000  0.000   1.0 |
 |  0.25 -0.00  0.08  2  1  1  0.000  0.000  1.000  1.000  0.000  0.000   1.0 |
 |  0.25 -0.00  0.08  2  2  1  0.000  0.000  1.000  1.000  0.000  0.000   1.0 |
 |  0.25 -0.00  0.08  2  3  1  0.000  0.000  1.000  1.000  0.000  0.000   1.0 |
 |  0.25 -0.00  0.08  2  4  1  0.000  0.000  1.000  1.000  0.000  0.000   1.0 |
 |  0.25 -0.00  0.08  2  5  1  0.000  0.000  1.000  1.000  0.000  0.000   1.0 |
 | -0.00  0.25  0.08  2  1  1  0.000  0.000  1.000  1.000  0.000  0.000   1.0 |
 | -0.00  0.25  0.08  2  2  1  0.000  0.000  1.000  1.000  0.000  0.000   1.0 |
 | -0.00  0.25  0.08  2  3  1  0.000  0.000  1.000  1.000  0.000  0.000   1.0 |
 | -0.00  0.25  0.08  2  4  1  0.000  0.000  1.000  1.000  0.000  0.000   1.0 |
 | -0.00  0.25  0.08  2  5  1  0.000  0.000  1.000  1.000  0.000  0.000   1.0 |
 |  0.25  0.25  0.08  2  1  1  0.000  0.000  1.000  1.000  0.000  0.000   1.0 |
 |  0.25  0.25  0.08  2  2  1  0.000  0.000  1.000  1.000  0.000  0.000   1.0 |
 |  0.25  0.25  0.08  2  3  1  0.000  0.000  1.000  1.000  0.000  0.000   1.0 |
 |  0.25  0.25  0.08  2  4  1  0.000  0.000  1.000  1.000  0.000  0.000   1.0 |
 |  0.25  0.25  0.08  2  5  1  0.000  0.000  1.000  1.000  0.000  0.000   1.0 |
 |  0.50 -0.00  0.08  2  1  1  0.000  0.000  1.000  1.000  0.000  0.000   1.0 |
 |  0.50 -0.00  0.08  2  2  1  0.000  0.000  1.000  1.000  0.000  0.000   1.0 |
 |  0.50 -0.00  0.08  2  3  1  0.000  0.000  1.000  1.000  0.000  0.000   1.0 |
 |  0.50 -0.00  0.08  2  4  1  0.000  0.000  1.000  1.000  0.000  0.000   1.0 |
 |  0.50 -0.00  0.08  2  5  1  0.000  0.000  1.000  1.000  0.000  0.000   1.0 |
 |  0.50  0.25  0.08  2  1  1  0.000  0.000  1.000  1.000  0.000  0.000   1.0 |
 |  0.50  0.25  0.08  2  2  1  0.000  0.000  1.000  1.000  0.000  0.000   1.0 |
 |  0.50  0.25  0.08  2  3  1  0.000  0.000  1.000  1.000  0.000  0.000   1.0 |
 |  0.50  0.25  0.08  2  4  1  0.000  0.000  1.000  1.000  0.000  0.000   1.0 |
 |  0.50  0.25  0.08  2  5  1  0.000  0.000  1.000  1.000  0.000  0.000   1.0 |
 |  0.25  0.50  0.08  2  1  1  0.000  0.000  1.000  1.000  0.000  0.000   1.0 |
 |  0.25  0.50  0.08  2  2  1  0.000  0.000  1.000  1.000  0.000  0.000   1.0 |
 |  0.25  0.50  0.08  2  3  1  0.000  0.000  1.000  1.000  0.000  0.000   1.0 |
 |  0.25  0.50  0.08  2  4  1  0.000  0.000  1.000  1.000  0.000  0.000   1.0 |
 |  0.25  0.50  0.08  2  5  1  0.000  0.000  1.000  1.000  0.000  0.000   1.0 |
 |  0.00  0.50  0.08  2  1  1  0.000  0.000  1.000  1.000  0.000  0.000   1.0 |
 |  0.00  0.50  0.08  2  2  1  0.000  0.000  1.000  1.000  0.000  0.000   1.0 |
 |  0.00  0.50  0.08  2  3  1  0.000  0.000  1.000  1.000  0.000  0.000   1.0 |
 |  0.00  0.50  0.08  2  4  1  0.000  0.000  1.000  1.000  0.000  0.000   1.0 |
 |  0.00  0.50  0.08  2  5  1  0.000  0.000  1.000  1.000  0.000  0.000   1.0 |
 |  0.75  0.00  0.08  2  1  1  0.000  0.000  1.000  1.000  0.000  0.000   1.0 |
 |  0.75  0.00  0.08  2  2  1  0.000  0.000  1.000  1.000  0.000  0.000   1.0 |
 |  0.75  0.00  0.08  2  3  1  0.000  0.000  1.000  1.000  0.000  0.000   1.0 |
 |  0.75  0.00  0.08  2  4  1  0.000  0.000  1.000  1.000  0.000  0.000   1.0 |
 |  0.75  0.00  0.08  2  5  1  0.000  0.000  1.000  1.000  0.000  0.000   1.0 |
 |  0.75  0.25  0.08  2  1  1  0.000  0.000  1.000  1.000  0.000  0.000   1.0 |
 |  0.75  0.25  0.08  2  2  1  0.000  0.000  1.000  1.000  0.000  0.000   1.0 |
 |  0.75  0.25  0.08  2  3  1  0.000  0.000  1.000  1.000  0.000  0.000   1.0 |
 |  0.75  0.25  0.08  2  4  1  0.000  0.000  1.000  1.000  0.000  0.000   1.0 |
 |  0.75  0.25  0.08  2  5  1  0.000  0.000  1.000  1.000  0.000  0.000   1.0 |
 |  0.75  0.50  0.08  2  1  1  0.000  0.000  1.000  1.000  0.000  0.000   1.0 |
 |  0.75  0.50  0.08  2  2  1  0.000  0.000  1.000  1.000  0.000  0.000   1.0 |
 |  0.75  0.50  0.08  2  3  1  0.000  0.000  1.000  1.000  0.000  0.000   1.0 |
 |  0.75  0.50  0.08  2  4  1  0.000  0.000  1.000  1.000  0.000  0.000   1.0 |
 |  0.75  0.50  0.08  2  5  1  0.000  0.000  1.000  1.000  0.000  0.000   1.0 |
 |  0.75  0.75  0.08  2  1  1  0.000  0.000  1.000  1.000  0.000  0.000   1.0 |
 |  0.75  0.75  0.08  2  2  1  0.000  0.000  1.000  1.000  0.000  0.000   1.0 |
 |  0.75  0.75  0.08  2  3  1  0.000  0.000  1.000  1.000  0.000  0.000   1.0 |
 |  0.75  0.75  0.08  2  4  1  0.000  0.000  1.000  1.000  0.000  0.000   1.0 |
 |  0.75  0.75  0.08  2  5  1  0.000  0.000  1.000  1.000  0.000  0.000   1.0 |
 |  0.50  0.75  0.08  2  1  1  0.000  0.000  1.000  1.000  0.000  0.000   1.0 |
 |  0.50  0.75  0.08  2  2  1  0.000  0.000  1.000  1.000  0.000  0.000   1.0 |
 |  0.50  0.75  0.08  2  3  1  0.000  0.000  1.000  1.000  0.000  0.000   1.0 |
 |  0.50  0.75  0.08  2  4  1  0.000  0.000  1.000  1.000  0.000  0.000   1.0 |
 |  0.50  0.75  0.08  2  5  1  0.000  0.000  1.000  1.000  0.000  0.000   1.0 |
 |  0.25  0.75  0.08  2  1  1  0.000  0.000  1.000  1.000  0.000  0.000   1.0 |
 |  0.25  0.75  0.08  2  2  1  0.000  0.000  1.000  1.000  0.000  0.000   1.0 |
 |  0.25  0.75  0.08  2  3  1  0.000  0.000  1.000  1.000  0.000  0.000   1.0 |
 |  0.25  0.75  0.08  2  4  1  0.000  0.000  1.000  1.000  0.000  0.000   1.0 |
 |  0.25  0.75  0.08  2  5  1  0.000  0.000  1.000  1.000  0.000  0.000   1.0 |
 |  0.00  0.75  0.08  2  1  1  0.000  0.000  1.000  1.000  0.000  0.000   1.0 |
 |  0.00  0.75  0.08  2  2  1  0.000  0.000  1.000  1.000  0.000  0.000   1.0 |
 |  0.00  0.75  0.08  2  3  1  0.000  0.000  1.000  1.000  0.000  0.000   1.0 |
 |  0.00  0.75  0.08  2  4  1  0.000  0.000  1.000  1.000  0.000  0.000   1.0 |
 |  0.00  0.75  0.08  2  5  1  0.000  0.000  1.000  1.000  0.000  0.000   1.0 |
 |  0.17  0.08  0.00  1  1  1  0.000  0.000  1.000  1.000  0.000  0.000   1.0 |
 |  0.17  0.08  0.00  1  2  1  0.000  0.000  1.000  1.000  0.000  0.000   1.0 |
 |  0.17  0.08  0.00  1  3  1  0.000  0.000  1.000  1.000  0.000  0.000   1.0 |
 |  0.17  0.08  0.16  1  1  1  0.000  0.000  1.000  1.000  0.000  0.000   1.0 |
 |  0.17  0.08  0.16  1  2  1  0.000  0.000  1.000  1.000  0.000  0.000   1.0 |
 |  0.17  0.08  0.16  1  3  1  0.000  0.000  1.000  1.000  0.000  0.000   1.0 |
 |  0.42  0.08  0.00  1  1  1  0.000  0.000  1.000  1.000  0.000  0.000   1.0 |
 |  0.42  0.08  0.00  1  2  1  0.000  0.000  1.000  1.000  0.000  0.000   1.0 |
 |  0.42  0.08  0.00  1  3  1  0.000  0.000  1.000  1.000  0.000  0.000   1.0 |
 |  0.42  0.08  0.16  1  1  1  0.000  0.000  1.000  1.000  0.000  0.000   1.0 |
 |  0.42  0.08  0.16  1  2  1  0.000  0.000  1.000  1.000  0.000  0.000   1.0 |
 |  0.42  0.08  0.16  1  3  1  0.000  0.000  1.000  1.000  0.000  0.000   1.0 |
 |  0.17  0.33  0.00  1  1  1  0.000  0.000  1.000  1.000  0.000  0.000   1.0 |
 |  0.17  0.33  0.00  1  2  1  0.000  0.000  1.000  1.000  0.000  0.000   1.0 |
 |  0.17  0.33  0.00  1  3  1  0.000  0.000  1.000  1.000  0.000  0.000   1.0 |
 |  0.17  0.33  0.16  1  1  1  0.000  0.000  1.000  1.000  0.000  0.000   1.0 |
 |  0.17  0.33  0.16  1  2  1  0.000  0.000  1.000  1.000  0.000  0.000   1.0 |
 |  0.17  0.33  0.16  1  3  1  0.000  0.000  1.000  1.000  0.000  0.000   1.0 |
 |  0.42  0.34  0.00  1  1  1  0.000  0.000  1.000  1.000  0.000  0.000   1.0 |
 |  0.42  0.34  0.00  1  2  1  0.000  0.000  1.000  1.000  0.000  0.000   1.0 |
 |  0.42  0.34  0.00  1  3  1  0.000  0.000  1.000  1.000  0.000  0.000   1.0 |
 |  0.42  0.34  0.15  1  1  1  0.000  0.000  1.000  1.000  0.000  0.000   1.0 |
 |  0.42  0.34  0.15  1  2  1  0.000  0.000  1.000  1.000  0.000  0.000   1.0 |
 |  0.42  0.34  0.15  1  3  1  0.000  0.000  1.000  1.000  0.000  0.000   1.0 |
 |  0.67  0.08 -0.00  1  1  1  0.000  0.000  1.000  1.000  0.000  0.000   1.0 |
 |  0.67  0.08 -0.00  1  2  1  0.000  0.000  1.000  1.000  0.000  0.000   1.0 |
 |  0.67  0.08 -0.00  1  3  1  0.000  0.000  1.000  1.000  0.000  0.000   1.0 |
 |  0.67  0.08  0.16  1  1  1  0.000  0.000  1.000  1.000  0.000  0.000   1.0 |
 |  0.67  0.08  0.16  1  2  1  0.000  0.000  1.000  1.000  0.000  0.000   1.0 |
 |  0.67  0.08  0.16  1  3  1  0.000  0.000  1.000  1.000  0.000  0.000   1.0 |
 |  0.67  0.33  0.00  1  1  1  0.000  0.000  1.000  1.000  0.000  0.000   1.0 |
 |  0.67  0.33  0.00  1  2  1  0.000  0.000  1.000  1.000  0.000  0.000   1.0 |
 |  0.67  0.33  0.00  1  3  1  0.000  0.000  1.000  1.000  0.000  0.000   1.0 |
 |  0.67  0.33  0.16  1  1  1  0.000  0.000  1.000  1.000  0.000  0.000   1.0 |
 |  0.67  0.33  0.16  1  2  1  0.000  0.000  1.000  1.000  0.000  0.000   1.0 |
 |  0.67  0.33  0.16  1  3  1  0.000  0.000  1.000  1.000  0.000  0.000   1.0 |
 |  0.66  0.58  0.00  1  1  1  0.000  0.000  1.000  1.000  0.000  0.000   1.0 |
 |  0.66  0.58  0.00  1  2  1  0.000  0.000  1.000  1.000  0.000  0.000   1.0 |
 |  0.66  0.58  0.00  1  3  1  0.000  0.000  1.000  1.000  0.000  0.000   1.0 |
 |  0.66  0.58  0.15  1  1  1  0.000  0.000  1.000  1.000  0.000  0.000   1.0 |
 |  0.66  0.58  0.15  1  2  1  0.000  0.000  1.000  1.000  0.000  0.000   1.0 |
 |  0.66  0.58  0.15  1  3  1  0.000  0.000  1.000  1.000  0.000  0.000   1.0 |
 |  0.42  0.58  0.00  1  1  1  0.000  0.000  1.000  1.000  0.000  0.000   1.0 |
 |  0.42  0.58  0.00  1  2  1  0.000  0.000  1.000  1.000  0.000  0.000   1.0 |
 |  0.42  0.58  0.00  1  3  1  0.000  0.000  1.000  1.000  0.000  0.000   1.0 |
 |  0.42  0.58  0.15  1  1  1  0.000  0.000  1.000  1.000  0.000  0.000   1.0 |
 |  0.42  0.58  0.15  1  2  1  0.000  0.000  1.000  1.000  0.000  0.000   1.0 |
 |  0.42  0.58  0.15  1  3  1  0.000  0.000  1.000  1.000  0.000  0.000   1.0 |
 |  0.17  0.58  0.00  1  1  1  0.000  0.000  1.000  1.000  0.000  0.000   1.0 |
 |  0.17  0.58  0.00  1  2  1  0.000  0.000  1.000  1.000  0.000  0.000   1.0 |
 |  0.17  0.58  0.00  1  3  1  0.000  0.000  1.000  1.000  0.000  0.000   1.0 |
 |  0.17  0.58  0.16  1  1  1  0.000  0.000  1.000  1.000  0.000  0.000   1.0 |
 |  0.17  0.58  0.16  1  2  1  0.000  0.000  1.000  1.000  0.000  0.000   1.0 |
 |  0.17  0.58  0.16  1  3  1  0.000  0.000  1.000  1.000  0.000  0.000   1.0 |
 |  0.92  0.08 -0.00  1  1  1  0.000  0.000  1.000  1.000  0.000  0.000   1.0 |
 |  0.92  0.08 -0.00  1  2  1  0.000  0.000  1.000  1.000  0.000  0.000   1.0 |
 |  0.92  0.08 -0.00  1  3  1  0.000  0.000  1.000  1.000  0.000  0.000   1.0 |
 |  0.92  0.08  0.16  1  1  1  0.000  0.000  1.000  1.000  0.000  0.000   1.0 |
 |  0.92  0.08  0.16  1  2  1  0.000  0.000  1.000  1.000  0.000  0.000   1.0 |
 |  0.92  0.08  0.16  1  3  1  0.000  0.000  1.000  1.000  0.000  0.000   1.0 |
 |  0.92  0.33 -0.00  1  1  1  0.000  0.000  1.000  1.000  0.000  0.000   1.0 |
 |  0.92  0.33 -0.00  1  2  1  0.000  0.000  1.000  1.000  0.000  0.000   1.0 |
 |  0.92  0.33 -0.00  1  3  1  0.000  0.000  1.000  1.000  0.000  0.000   1.0 |
 |  0.92  0.33  0.16  1  1  1  0.000  0.000  1.000  1.000  0.000  0.000   1.0 |
 |  0.92  0.33  0.16  1  2  1  0.000  0.000  1.000  1.000  0.000  0.000   1.0 |
 |  0.92  0.33  0.16  1  3  1  0.000  0.000  1.000  1.000  0.000  0.000   1.0 |
 |  0.92  0.58  0.00  1  1  1  0.000  0.000  1.000  1.000  0.000  0.000   1.0 |
 |  0.92  0.58  0.00  1  2  1  0.000  0.000  1.000  1.000  0.000  0.000   1.0 |
 |  0.92  0.58  0.00  1  3  1  0.000  0.000  1.000  1.000  0.000  0.000   1.0 |
 |  0.92  0.58  0.16  1  1  1  0.000  0.000  1.000  1.000  0.000  0.000   1.0 |
 |  0.92  0.58  0.16  1  2  1  0.000  0.000  1.000  1.000  0.000  0.000   1.0 |
 |  0.92  0.58  0.16  1  3  1  0.000  0.000  1.000  1.000  0.000  0.000   1.0 |
 |  0.92  0.83  0.00  1  1  1  0.000  0.000  1.000  1.000  0.000  0.000   1.0 |
 |  0.92  0.83  0.00  1  2  1  0.000  0.000  1.000  1.000  0.000  0.000   1.0 |
 |  0.92  0.83  0.00  1  3  1  0.000  0.000  1.000  1.000  0.000  0.000   1.0 |
 |  0.92  0.83  0.16  1  1  1  0.000  0.000  1.000  1.000  0.000  0.000   1.0 |
 |  0.92  0.83  0.16  1  2  1  0.000  0.000  1.000  1.000  0.000  0.000   1.0 |
 |  0.92  0.83  0.16  1  3  1  0.000  0.000  1.000  1.000  0.000  0.000   1.0 |
 |  0.67  0.83  0.00  1  1  1  0.000  0.000  1.000  1.000  0.000  0.000   1.0 |
 |  0.67  0.83  0.00  1  2  1  0.000  0.000  1.000  1.000  0.000  0.000   1.0 |
 |  0.67  0.83  0.00  1  3  1  0.000  0.000  1.000  1.000  0.000  0.000   1.0 |
 |  0.67  0.83  0.16  1  1  1  0.000  0.000  1.000  1.000  0.000  0.000   1.0 |
 |  0.67  0.83  0.16  1  2  1  0.000  0.000  1.000  1.000  0.000  0.000   1.0 |
 |  0.67  0.83  0.16  1  3  1  0.000  0.000  1.000  1.000  0.000  0.000   1.0 |
 |  0.42  0.83  0.00  1  1  1  0.000  0.000  1.000  1.000  0.000  0.000   1.0 |
 |  0.42  0.83  0.00  1  2  1  0.000  0.000  1.000  1.000  0.000  0.000   1.0 |
 |  0.42  0.83  0.00  1  3  1  0.000  0.000  1.000  1.000  0.000  0.000   1.0 |
 |  0.42  0.83  0.16  1  1  1  0.000  0.000  1.000  1.000  0.000  0.000   1.0 |
 |  0.42  0.83  0.16  1  2  1  0.000  0.000  1.000  1.000  0.000  0.000   1.0 |
 |  0.42  0.83  0.16  1  3  1  0.000  0.000  1.000  1.000  0.000  0.000   1.0 |
 |  0.17  0.83 -0.00  1  1  1  0.000  0.000  1.000  1.000  0.000  0.000   1.0 |
 |  0.17  0.83 -0.00  1  2  1  0.000  0.000  1.000  1.000  0.000  0.000   1.0 |
 |  0.17  0.83 -0.00  1  3  1  0.000  0.000  1.000  1.000  0.000  0.000   1.0 |
 |  0.17  0.83  0.16  1  1  1  0.000  0.000  1.000  1.000  0.000  0.000   1.0 |
 |  0.17  0.83  0.16  1  2  1  0.000  0.000  1.000  1.000  0.000  0.000   1.0 |
 |  0.17  0.83  0.16  1  3  1  0.000  0.000  1.000  1.000  0.000  0.000   1.0 |
 +----------------------------------------------------------------------------+
  
                                ------------
                                K-POINT GRID
                                ------------
  
             Grid size =  4 x  4 x  1      Total points =   16
  
 *----------------------------------------------------------------------------*
 | k-point      Fractional Coordinate        Cartesian Coordinate (Ang^-1)    |
 +----------------------------------------------------------------------------+
 |     1    0.00000   0.00000   0.00000   |    0.00000   0.00000   0.00000    |
 |     2    0.00000   0.25000   0.00000   |    0.00000   0.13067   0.00000    |
 |     3    0.00000   0.50000   0.00000   |    0.00000   0.26133   0.00000    |
 |     4    0.00000   0.75000   0.00000   |    0.00000   0.39200   0.00000    |
 |     5    0.25000   0.00000   0.00000   |    0.11316   0.06533   0.00000    |
 |     6    0.25000   0.25000   0.00000   |    0.11316   0.19600   0.00000    |
 |     7    0.25000   0.50000   0.00000   |    0.11316   0.32666   0.00000    |
 |     8    0.25000   0.75000   0.00000   |    0.11316   0.45733   0.00000    |
 |     9    0.50000   0.00000   0.00000   |    0.22632   0.13067   0.00000    |
 |    10    0.50000   0.25000   0.00000   |    0.22632   0.26133   0.00000    |
 |    11    0.50000   0.50000   0.00000   |    0.22632   0.39200   0.00000    |
 |    12    0.50000   0.75000   0.00000   |    0.22632   0.52266   0.00000    |
 |    13    0.75000   0.00000   0.00000   |    0.33948   0.19600   0.00000    |
 |    14    0.75000   0.25000   0.00000   |    0.33948   0.32666   0.00000    |
 |    15    0.75000   0.50000   0.00000   |    0.33948   0.45733   0.00000    |
 |    16    0.75000   0.75000   0.00000   |    0.33948   0.58799   0.00000    |
 *----------------------------------------------------------------------------*
  
  
 *---------------------------------- MAIN ------------------------------------*
 |  Number of Wannier Functions               :               176             |
 |  Number of Objective Wannier Functions     :               176             |
 |  Number of input Bloch states              :               336             |
 |  Output verbosity (1=low, 5=high)          :                 3             |
 |  Timing Level (1=low, 5=high)              :                 1             |
 |  Optimisation (0=memory, 3=speed)          :                 3             |
 |  Length Unit                               :               Ang             |
 |  Post-processing setup (write *.nnkp)      :                 F             |
 |  Using Gamma-only branch of algorithms     :                 F             |
 |  CP code post-processing                   :                 F             |
 |  Wavefunction (UNK) file-type              :       unformatted             |
 |  Wavefunction spin channel                 :                up             |
 *----------------------------------------------------------------------------*
 *------------------------------- WANNIERISE ---------------------------------*
 |  Total number of iterations                :               500             |
 |  Number of CG steps before reset           :                 5             |
 |  Trial step length for line search         :             2.000             |
 |  Convergence tolerence                     :         0.100E-09             |
 |  Convergence window                        :                -1             |
 |  Iterations between writing output         :                50             |
 |  Iterations between backing up to disk     :               100             |
 |  Write r^2_nm to file                      :                 F             |
 |  Write xyz WF centres to file              :                 T             |
 |  Write on-site energies <0n|H|0n> to file  :                 F             |
 |  Use guiding centre to control phases      :                 T             |
 |  Use phases for initial projections        :                 F             |
 |  Iterations before starting guiding centres:                 0             |
 |  Iterations between using guiding centres  :                 1             |
 |  Perform selective localization            :                 F             |
 |  Use constrains in selective localization  :                 F             |
 |  Value of the Lagrange multiplier          :         0.100E+01             |
 *----------------------------------------------------------------------------*
 *------------------------------- DISENTANGLE --------------------------------*
 |  Using band disentanglement                :                 T             |
 |  Total number of iterations                :              4000             |
 |  Mixing ratio                              :             0.500             |
 |  Convergence tolerence                     :         1.000E-10             |
 |  Convergence window                        :                 3             |
 *----------------------------------------------------------------------------*
 *-------------------------------- PLOTTING ----------------------------------*
 |  Plotting Wannier functions                :                 F             |
 |   Size of supercell for plotting           :     2x    2x    2             |
 |   Plotting mode (molecule or crystal)      :           crystal             |
 |   Plotting format                          :          xcrysden             |
 |   Plot radius                              :             3.500             |
 |   Plot scale                               :             1.000             |
 *----------------------------------------------------------------------------*
 |  Plotting Fermi surface                    :                 F             |
 |   Number of plotting points (along b_1)    :                50             |
 |   Plotting format                          :          xcrysden             |
 *----------------------------------------------------------------------------*
 |  Plotting interpolated bandstructure       :                 T             |
 |   Number of K-path sections                :                 3             |
 |   Divisions along first K-path section     :               100             |
 |   Output format                            :           gnuplot             |
 |   Output mode                              :               s-k             |
 *----------------------------------------------------------------------------*
 |   K-space path sections:                                                   |
 |    From: Γ      0.000  0.000  0.000     To: M       0.500  0.000  0.000   |
 |    From: M       0.500  0.000  0.000     To: K       0.333  0.333  0.000   |
 |    From: K       0.333  0.333  0.000     To: Γ      0.000  0.000  0.000   |
 *----------------------------------------------------------------------------*
 |  Plotting Hamiltonian in WF basis          :                 T             |
 *----------------------------------------------------------------------------*
 |  Writing data for Van der Waals post-proc  :                 F             |
 *----------------------------------------------------------------------------*
 *------------------------------- TRANSPORT ----------------------------------*
 |  Transport mode                            :              bulk             |
 |   Hamiltonian from external files          :                 F             |
 |   System extended in                       :              none             |
 |   Centre of the unit cell to which WF are translated (fract. coords):      |
 |                                       0.000000,    0.000000,    0.000000   |
 |  Fermi energy (eV)                         :             0.000             |
 *----------------------------------------------------------------------------*
 Time to read parameters        0.026 (sec)

 *---------------------------------- K-MESH ----------------------------------*
 +----------------------------------------------------------------------------+
 |                    Distance to Nearest-Neighbour Shells                    |
 |                    ------------------------------------                    |
 |          Shell             Distance (Ang^-1)          Multiplicity         |
 |          -----             -----------------          ------------         |
 |             1                   0.130665                      6            |
 |             2                   0.226319                      6            |
 |             3                   0.261330                      6            |
 |             4                   0.293741                      2            |
 |             5                   0.321492                     12            |
 |             6                   0.345708                     12            |
 |             7                   0.370815                     12            |
 |             8                   0.391996                      6            |
 |             9                   0.393163                     12            |
 |            10                   0.452638                      6            |
 |            11                   0.453649                     24            |
 |            12                   0.471120                     12            |
 |            13                   0.489841                     12            |
 |            14                   0.522661                      6            |
 |            15                   0.539597                     12            |
 |            16                   0.555192                     24            |
 |            17                   0.569557                     12            |
 |            18                   0.587482                      2            |
 |            19                   0.598783                     12            |
 |            20                   0.599548                     12            |
 |            21                   0.601838                     12            |
 |            22                   0.629568                     12            |
 |            23                   0.640842                     24            |
 |            24                   0.642984                     12            |
 |            25                   0.653326                      6            |
 |            26                   0.666952                     24            |
 |            27                   0.678957                      6            |
 |            28                   0.681652                     24            |
 |            29                   0.691416                     12            |
 |            30                   0.706255                     12            |
 |            31                   0.716323                     12            |
 |            32                   0.727513                     12            |
 |            33                   0.739774                     12            |
 |            34                   0.741631                     12            |
 |            35                   0.751225                     24            |
 |            36                   0.753053                     24            |
 +----------------------------------------------------------------------------+
 | The b-vectors are chosen automatically                                     |
 | Shell:  1 Multiplicity:  6                                                 |
 | b-vector 1 :        0.000000    0.130665    0.000000      (Ang^-1)         |
 | b-vector 2 :        0.113159    0.065333    0.000000      (Ang^-1)         |
 | b-vector 3 :        0.000000   -0.130665    0.000000      (Ang^-1)         |
 | b-vector 4 :        0.113159   -0.065333    0.000000      (Ang^-1)         |
 | b-vector 5 :       -0.113159   -0.065333    0.000000      (Ang^-1)         |
 | b-vector 6 :       -0.113159    0.065333    0.000000      (Ang^-1)         |
 | Shell:  1 w_b   19.5235393      (Ang^2)                                    |
 | B1 condition is not satisfied: Adding another shell                        |
 | Shell:  2 Multiplicity:  6                                                 |
 | b-vector 1 :        0.113159    0.195998    0.000000      (Ang^-1)         |
 | b-vector 2 :        0.113159   -0.195998    0.000000      (Ang^-1)         |
 | b-vector 3 :        0.226319   -0.000000    0.000000      (Ang^-1)         |
 | b-vector 4 :       -0.226319    0.000000    0.000000      (Ang^-1)         |
 | b-vector 5 :       -0.113159    0.195998    0.000000      (Ang^-1)         |
 | b-vector 6 :       -0.113159   -0.195998    0.000000      (Ang^-1)         |
 | SVD found small singular value, Rejecting this shell and trying the next   |
 | Shell:  3 Multiplicity:  6                                                 |
 | b-vector 1 :        0.000000    0.261330    0.000000      (Ang^-1)         |
 | b-vector 2 :        0.226319    0.130665    0.000000      (Ang^-1)         |
 | b-vector 3 :        0.000000   -0.261330    0.000000      (Ang^-1)         |
 | b-vector 4 :        0.226319   -0.130665    0.000000      (Ang^-1)         |
 | b-vector 5 :       -0.226319   -0.130665    0.000000      (Ang^-1)         |
 | b-vector 6 :       -0.226319    0.130665    0.000000      (Ang^-1)         |
 | This shell is linearly dependent on existing shells: Trying next shell     |
 | Shell:  4 Multiplicity:  2                                                 |
 | b-vector 1 :        0.000000    0.000000    0.293741      (Ang^-1)         |
 | b-vector 2 :        0.000000    0.000000   -0.293741      (Ang^-1)         |
 | Shell:  1 w_b   19.5235393      (Ang^2)                                    |
 | Shell:  2 w_b    5.7948294      (Ang^2)                                    |
 | The following shells are used:   1,  4                                     |
 +----------------------------------------------------------------------------+
 |                        Shell   # Nearest-Neighbours                        |
 |                        -----   --------------------                        |
 |                          1               6                                 |
 |                          4               2                                 |
 +----------------------------------------------------------------------------+
 | Completeness relation is fully satisfied [Eq. (B1), PRB 56, 12847 (1997)]  |
 +----------------------------------------------------------------------------+
 |                  b_k Vectors (Ang^-1) and Weights (Ang^2)                  |
 |                  ----------------------------------------                  |
 |            No.         b_k(x)      b_k(y)      b_k(z)        w_b           |
 |            ---        --------------------------------     --------        |
 |             1         0.000000    0.130665    0.000000    19.523539        |
 |             2         0.113159    0.065333    0.000000    19.523539        |
 |             3         0.000000   -0.130665    0.000000    19.523539        |
 |             4         0.113159   -0.065333    0.000000    19.523539        |
 |             5        -0.113159   -0.065333    0.000000    19.523539        |
 |             6        -0.113159    0.065333    0.000000    19.523539        |
 |             7         0.000000    0.000000    0.293741     5.794829        |
 |             8         0.000000    0.000000   -0.293741     5.794829        |
 +----------------------------------------------------------------------------+
 |                           b_k Directions (Ang^-1)                          |
 |                           -----------------------                          |
 |            No.           x           y           z                         |
 |            ---        --------------------------------                     |
 |             1         0.000000    0.130665    0.000000                     |
 |             2         0.113159    0.065333    0.000000                     |
 |             3         0.113159   -0.065333    0.000000                     |
 |             4         0.000000    0.000000    0.293741                     |
 +----------------------------------------------------------------------------+
  
 Time to get kmesh              0.022 (sec)
 *============================================================================*
 |                              MEMORY ESTIMATE                               |
 |         Maximum RAM allocated during each phase of the calculation         |
 *============================================================================*
 |                        Disentanglement          317.62 Mb                  |
 |                            Wannierise:          169.07 Mb                  |
 |                                                                            |
 |   N.B. by setting optimisation=0 memory usage will be reduced to:          |
 |                        Disentanglement          317.15 Mb                  |
 |                            Wannierise:          108.57 Mb                  |
 |   However, this will result in more i/o and slow down the calculation      |
 |                          plot_wannier:          169.07 Mb                  |
 *----------------------------------------------------------------------------*
  
 Starting a new Wannier90 calculation ...


 Reading overlaps from nbsefe.up.mmn    :  Created on 12Jul2023 at 13:33:48

 Reading projections from nbsefe.up.amn :  Created on 12Jul2023 at 13:17:20

 Time to read overlaps         35.654 (sec)

 *------------------------------- DISENTANGLE --------------------------------*
 +----------------------------------------------------------------------------+
 |                              Energy  Windows                               |
 |                              ---------------                               |
 |                   Outer:   -7.00000  to    7.00000  (eV)                   |
 |                   Inner:   -2.00000  to    0.00000  (eV)                   |
 +----------------------------------------------------------------------------+
 |                        K-points with Frozen States                         |
 |                        ---------------------------                         |
 |     1     2     3     4     5     6     7     8     9    10    11    12    |
 |    13    14    15    16                                                    |
 +----------------------------------------------------------------------------+
   Number of target bands to extract:  176
 +----------------------------------------------------------------------------+
 |                                  Windows                                   |
 |                                  -------                                   |
 |               K-point      Ndimwin     Ndimfroz    Nfirstwin               |
 |               ----------------------------------------------               |
 |                   1          240           19          97                  |
 |                   2          240           17          97                  |
 |                   3          240           21          97                  |
 |                   4          240           17          97                  |
 |                   5          240           17          97                  |
 |                   6          240           20          97                  |
 |                   7          240           20          97                  |
 |                   8          240           17          97                  |
 |                   9          240           21          97                  |
 |                  10          240           20          97                  |
 |                  11          240           21          97                  |
 |                  12          240           20          97                  |
 |                  13          240           17          97                  |
 |                  14          240           17          97                  |
 |                  15          240           20          97                  |
 |                  16          240           20          97                  |
 +----------------------------------------------------------------------------+

                   Unitarised projection of Wannier functions                  
                   ------------------------------------------                  
   A_mn = <psi_m|g_n> --> S = A.A^+ --> U = S^-1/2.A
   In dis_project... done
   Using an inner window (linner = T)
   In dis_proj_froz...
 K-point   1 ndimwin: 240 we want the157 leading eigenvector(s) of QPQ
  lambda(  1)= -0.000000000000
  lambda(  2)= -0.000000000000
  lambda(  3)= -0.000000000000
  lambda(  4)= -0.000000000000
  lambda(  5)= -0.000000000000
  lambda(  6)= -0.000000000000
  lambda(  7)= -0.000000000000
  lambda(  8)= -0.000000000000
  lambda(  9)= -0.000000000000
  lambda( 10)= -0.000000000000
  lambda( 11)= -0.000000000000
  lambda( 12)= -0.000000000000
  lambda( 13)= -0.000000000000
  lambda( 14)= -0.000000000000
  lambda( 15)= -0.000000000000
  lambda( 16)= -0.000000000000
  lambda( 17)= -0.000000000000
  lambda( 18)= -0.000000000000
  lambda( 19)= -0.000000000000
  lambda( 20)= -0.000000000000
  lambda( 21)= -0.000000000000
  lambda( 22)= -0.000000000000
  lambda( 23)= -0.000000000000
  lambda( 24)= -0.000000000000
  lambda( 25)=  0.000000000000
  lambda( 26)=  0.000000000000
  lambda( 27)=  0.000000000000
  lambda( 28)=  0.000000000000
  lambda( 29)=  0.000000000000
  lambda( 30)=  0.000000000000
  lambda( 31)=  0.000000000000
  lambda( 32)=  0.000000000000
  lambda( 33)=  0.000000000000
  lambda( 34)=  0.000000000000
  lambda( 35)=  0.000000000000
  lambda( 36)=  0.000000000000
  lambda( 37)=  0.000000000000
  lambda( 38)=  0.000000000000
  lambda( 39)=  0.000000000000
  lambda( 40)=  0.000000000000
  lambda( 41)=  0.000000000000
  lambda( 42)=  0.000000000000
  lambda( 43)=  0.000000000000
  lambda( 44)=  0.000000000000
  lambda( 45)=  0.000000000000
  lambda( 46)=  0.000000000000
  lambda( 47)=  0.000000000000
  lambda( 48)=  0.000000000000
  lambda( 49)=  0.000000000000
  lambda( 50)=  0.000000000000
  lambda( 51)=  0.000000000000
  lambda( 52)=  0.000000000000
  lambda( 53)=  0.000000000000
  lambda( 54)=  0.000000000000
  lambda( 55)=  0.000000000000
  lambda( 56)=  0.000000000000
  lambda( 57)=  0.000000000000
  lambda( 58)=  0.000000000000
  lambda( 59)=  0.000000000000
  lambda( 60)=  0.000000000000
  lambda( 61)=  0.000000000000
  lambda( 62)=  0.000000000000
  lambda( 63)=  0.000000000000
  lambda( 64)=  0.000000000000
  lambda( 65)=  0.000006782691
  lambda( 66)=  0.000755172183
  lambda( 67)=  0.000755640324
  lambda( 68)=  0.015838453879
  lambda( 69)=  0.019183713062
  lambda( 70)=  0.019184949266
  lambda( 71)=  0.021974361275
  lambda( 72)=  0.021977030554
  lambda( 73)=  0.024137465047
  lambda( 74)=  0.033368915523
  lambda( 75)=  0.033368929271
  lambda( 76)=  0.038826986454
  lambda( 77)=  0.044847217174
  lambda( 78)=  0.049125468309
  lambda( 79)=  0.049126023917
  lambda( 80)=  0.049198596879
  lambda( 81)=  0.097807327312
  lambda( 82)=  0.098026038387
  lambda( 83)=  0.098037316172
  lambda( 84)=  1.000000000000
  lambda( 85)=  1.000000000000
  lambda( 86)=  1.000000000000
  lambda( 87)=  1.000000000000
  lambda( 88)=  1.000000000000
  lambda( 89)=  1.000000000000
  lambda( 90)=  1.000000000000
  lambda( 91)=  1.000000000000
  lambda( 92)=  1.000000000000
  lambda( 93)=  1.000000000000
  lambda( 94)=  1.000000000000
  lambda( 95)=  1.000000000000
  lambda( 96)=  1.000000000000
  lambda( 97)=  1.000000000000
  lambda( 98)=  1.000000000000
  lambda( 99)=  1.000000000000
  lambda(100)=  1.000000000000
  lambda(101)=  1.000000000000
  lambda(102)=  1.000000000000
  lambda(103)=  1.000000000000
  lambda(104)=  1.000000000000
  lambda(105)=  1.000000000000
  lambda(106)=  1.000000000000
  lambda(107)=  1.000000000000
  lambda(108)=  1.000000000000
  lambda(109)=  1.000000000000
  lambda(110)=  1.000000000000
  lambda(111)=  1.000000000000
  lambda(112)=  1.000000000000
  lambda(113)=  1.000000000000
  lambda(114)=  1.000000000000
  lambda(115)=  1.000000000000
  lambda(116)=  1.000000000000
  lambda(117)=  1.000000000000
  lambda(118)=  1.000000000000
  lambda(119)=  1.000000000000
  lambda(120)=  1.000000000000
  lambda(121)=  1.000000000000
  lambda(122)=  1.000000000000
  lambda(123)=  1.000000000000
  lambda(124)=  1.000000000000
  lambda(125)=  1.000000000000
  lambda(126)=  1.000000000000
  lambda(127)=  1.000000000000
  lambda(128)=  1.000000000000
  lambda(129)=  1.000000000000
  lambda(130)=  1.000000000000
  lambda(131)=  1.000000000000
  lambda(132)=  1.000000000000
  lambda(133)=  1.000000000000
  lambda(134)=  1.000000000000
  lambda(135)=  1.000000000000
  lambda(136)=  1.000000000000
  lambda(137)=  1.000000000000
  lambda(138)=  1.000000000000
  lambda(139)=  1.000000000000
  lambda(140)=  1.000000000000
  lambda(141)=  1.000000000000
  lambda(142)=  1.000000000000
  lambda(143)=  1.000000000000
  lambda(144)=  1.000000000000
  lambda(145)=  1.000000000000
  lambda(146)=  1.000000000000
  lambda(147)=  1.000000000000
  lambda(148)=  1.000000000000
  lambda(149)=  1.000000000000
  lambda(150)=  1.000000000000
  lambda(151)=  1.000000000000
  lambda(152)=  1.000000000000
  lambda(153)=  1.000000000000
  lambda(154)=  1.000000000000
  lambda(155)=  1.000000000000
  lambda(156)=  1.000000000000
  lambda(157)=  1.000000000000
  lambda(158)=  1.000000000000
  lambda(159)=  1.000000000000
  lambda(160)=  1.000000000000
  lambda(161)=  1.000000000000
  lambda(162)=  1.000000000000
  lambda(163)=  1.000000000000
  lambda(164)=  1.000000000000
  lambda(165)=  1.000000000000
  lambda(166)=  1.000000000000
  lambda(167)=  1.000000000000
  lambda(168)=  1.000000000000
  lambda(169)=  1.000000000000
  lambda(170)=  1.000000000000
  lambda(171)=  1.000000000000
  lambda(172)=  1.000000000000
  lambda(173)=  1.000000000000
  lambda(174)=  1.000000000000
  lambda(175)=  1.000000000000
  lambda(176)=  1.000000000000
  lambda(177)=  1.000000000000
  lambda(178)=  1.000000000000
  lambda(179)=  1.000000000000
  lambda(180)=  1.000000000000
  lambda(181)=  1.000000000000
  lambda(182)=  1.000000000000
  lambda(183)=  1.000000000000
  lambda(184)=  1.000000000000
  lambda(185)=  1.000000000000
  lambda(186)=  1.000000000000
  lambda(187)=  1.000000000000
  lambda(188)=  1.000000000000
  lambda(189)=  1.000000000000
  lambda(190)=  1.000000000000
  lambda(191)=  1.000000000000
  lambda(192)=  1.000000000000
  lambda(193)=  1.000000000000
  lambda(194)=  1.000000000000
  lambda(195)=  1.000000000000
  lambda(196)=  1.000000000000
  lambda(197)=  1.000000000000
  lambda(198)=  1.000000000000
  lambda(199)=  1.000000000000
  lambda(200)=  1.000000000000
  lambda(201)=  1.000000000000
  lambda(202)=  1.000000000000
  lambda(203)=  1.000000000000
  lambda(204)=  1.000000000000
  lambda(205)=  1.000000000000
  lambda(206)=  1.000000000000
  lambda(207)=  1.000000000000
  lambda(208)=  1.000000000000
  lambda(209)=  1.000000000000
  lambda(210)=  1.000000000000
  lambda(211)=  1.000000000000
  lambda(212)=  1.000000000000
  lambda(213)=  1.000000000000
  lambda(214)=  1.000000000000
  lambda(215)=  1.000000000000
  lambda(216)=  1.000000000000
  lambda(217)=  1.000000000000
  lambda(218)=  1.000000000000
  lambda(219)=  1.000000000000
  lambda(220)=  1.000000000000
  lambda(221)=  1.000000000000
  lambda(222)=  1.000000000000
  lambda(223)=  1.000000000000
  lambda(224)=  1.000000000000
  lambda(225)=  1.000000000000
  lambda(226)=  1.000000000000
  lambda(227)=  1.000000000000
  lambda(228)=  1.000000000000
  lambda(229)=  1.000000000000
  lambda(230)=  1.000000000000
  lambda(231)=  1.000000000000
  lambda(232)=  1.000000000000
  lambda(233)=  1.000000000000
  lambda(234)=  1.000000000000
  lambda(235)=  1.000000000000
  lambda(236)=  1.000000000000
  lambda(237)=  1.000000000000
  lambda(238)=  1.000000000000
  lambda(239)=  1.000000000000
  lambda(240)=  1.000000000000

 K-point   2 ndimwin: 240 we want the159 leading eigenvector(s) of QPQ
  lambda(  1)= -0.000000000000
  lambda(  2)= -0.000000000000
  lambda(  3)= -0.000000000000
  lambda(  4)= -0.000000000000
  lambda(  5)= -0.000000000000
  lambda(  6)= -0.000000000000
  lambda(  7)= -0.000000000000
  lambda(  8)= -0.000000000000
  lambda(  9)= -0.000000000000
  lambda( 10)= -0.000000000000
  lambda( 11)= -0.000000000000
  lambda( 12)= -0.000000000000
  lambda( 13)= -0.000000000000
  lambda( 14)= -0.000000000000
  lambda( 15)= -0.000000000000
  lambda( 16)= -0.000000000000
  lambda( 17)= -0.000000000000
  lambda( 18)= -0.000000000000
  lambda( 19)= -0.000000000000
  lambda( 20)= -0.000000000000
  lambda( 21)= -0.000000000000
  lambda( 22)= -0.000000000000
  lambda( 23)= -0.000000000000
  lambda( 24)= -0.000000000000
  lambda( 25)= -0.000000000000
  lambda( 26)= -0.000000000000
  lambda( 27)= -0.000000000000
  lambda( 28)= -0.000000000000
  lambda( 29)= -0.000000000000
  lambda( 30)= -0.000000000000
  lambda( 31)= -0.000000000000
  lambda( 32)= -0.000000000000
  lambda( 33)=  0.000000000000
  lambda( 34)=  0.000000000000
  lambda( 35)=  0.000000000000
  lambda( 36)=  0.000000000000
  lambda( 37)=  0.000000000000
  lambda( 38)=  0.000000000000
  lambda( 39)=  0.000000000000
  lambda( 40)=  0.000000000000
  lambda( 41)=  0.000000000000
  lambda( 42)=  0.000000000000
  lambda( 43)=  0.000000000000
  lambda( 44)=  0.000000000000
  lambda( 45)=  0.000000000000
  lambda( 46)=  0.000000000000
  lambda( 47)=  0.000000000000
  lambda( 48)=  0.000000000000
  lambda( 49)=  0.000000000000
  lambda( 50)=  0.000000000000
  lambda( 51)=  0.000000000000
  lambda( 52)=  0.000000000000
  lambda( 53)=  0.000000000000
  lambda( 54)=  0.000000000000
  lambda( 55)=  0.000000000000
  lambda( 56)=  0.000000000000
  lambda( 57)=  0.000000000000
  lambda( 58)=  0.000000000000
  lambda( 59)=  0.000000000000
  lambda( 60)=  0.000000000000
  lambda( 61)=  0.000000000000
  lambda( 62)=  0.000000000000
  lambda( 63)=  0.000000000000
  lambda( 64)=  0.000000000000
  lambda( 65)=  0.000585565127
  lambda( 66)=  0.009382122761
  lambda( 67)=  0.010733979016
  lambda( 68)=  0.010918248293
  lambda( 69)=  0.015696222079
  lambda( 70)=  0.018174700540
  lambda( 71)=  0.019932504531
  lambda( 72)=  0.026960284078
  lambda( 73)=  0.029441653429
  lambda( 74)=  0.039462902058
  lambda( 75)=  0.039566699077
  lambda( 76)=  0.045268017572
  lambda( 77)=  0.048163336417
  lambda( 78)=  0.052095840705
  lambda( 79)=  0.066197792103
  lambda( 80)=  0.066988806590
  lambda( 81)=  0.076807185912
  lambda( 82)=  1.000000000000
  lambda( 83)=  1.000000000000
  lambda( 84)=  1.000000000000
  lambda( 85)=  1.000000000000
  lambda( 86)=  1.000000000000
  lambda( 87)=  1.000000000000
  lambda( 88)=  1.000000000000
  lambda( 89)=  1.000000000000
  lambda( 90)=  1.000000000000
  lambda( 91)=  1.000000000000
  lambda( 92)=  1.000000000000
  lambda( 93)=  1.000000000000
  lambda( 94)=  1.000000000000
  lambda( 95)=  1.000000000000
  lambda( 96)=  1.000000000000
  lambda( 97)=  1.000000000000
  lambda( 98)=  1.000000000000
  lambda( 99)=  1.000000000000
  lambda(100)=  1.000000000000
  lambda(101)=  1.000000000000
  lambda(102)=  1.000000000000
  lambda(103)=  1.000000000000
  lambda(104)=  1.000000000000
  lambda(105)=  1.000000000000
  lambda(106)=  1.000000000000
  lambda(107)=  1.000000000000
  lambda(108)=  1.000000000000
  lambda(109)=  1.000000000000
  lambda(110)=  1.000000000000
  lambda(111)=  1.000000000000
  lambda(112)=  1.000000000000
  lambda(113)=  1.000000000000
  lambda(114)=  1.000000000000
  lambda(115)=  1.000000000000
  lambda(116)=  1.000000000000
  lambda(117)=  1.000000000000
  lambda(118)=  1.000000000000
  lambda(119)=  1.000000000000
  lambda(120)=  1.000000000000
  lambda(121)=  1.000000000000
  lambda(122)=  1.000000000000
  lambda(123)=  1.000000000000
  lambda(124)=  1.000000000000
  lambda(125)=  1.000000000000
  lambda(126)=  1.000000000000
  lambda(127)=  1.000000000000
  lambda(128)=  1.000000000000
  lambda(129)=  1.000000000000
  lambda(130)=  1.000000000000
  lambda(131)=  1.000000000000
  lambda(132)=  1.000000000000
  lambda(133)=  1.000000000000
  lambda(134)=  1.000000000000
  lambda(135)=  1.000000000000
  lambda(136)=  1.000000000000
  lambda(137)=  1.000000000000
  lambda(138)=  1.000000000000
  lambda(139)=  1.000000000000
  lambda(140)=  1.000000000000
  lambda(141)=  1.000000000000
  lambda(142)=  1.000000000000
  lambda(143)=  1.000000000000
  lambda(144)=  1.000000000000
  lambda(145)=  1.000000000000
  lambda(146)=  1.000000000000
  lambda(147)=  1.000000000000
  lambda(148)=  1.000000000000
  lambda(149)=  1.000000000000
  lambda(150)=  1.000000000000
  lambda(151)=  1.000000000000
  lambda(152)=  1.000000000000
  lambda(153)=  1.000000000000
  lambda(154)=  1.000000000000
  lambda(155)=  1.000000000000
  lambda(156)=  1.000000000000
  lambda(157)=  1.000000000000
  lambda(158)=  1.000000000000
  lambda(159)=  1.000000000000
  lambda(160)=  1.000000000000
  lambda(161)=  1.000000000000
  lambda(162)=  1.000000000000
  lambda(163)=  1.000000000000
  lambda(164)=  1.000000000000
  lambda(165)=  1.000000000000
  lambda(166)=  1.000000000000
  lambda(167)=  1.000000000000
  lambda(168)=  1.000000000000
  lambda(169)=  1.000000000000
  lambda(170)=  1.000000000000
  lambda(171)=  1.000000000000
  lambda(172)=  1.000000000000
  lambda(173)=  1.000000000000
  lambda(174)=  1.000000000000
  lambda(175)=  1.000000000000
  lambda(176)=  1.000000000000
  lambda(177)=  1.000000000000
  lambda(178)=  1.000000000000
  lambda(179)=  1.000000000000
  lambda(180)=  1.000000000000
  lambda(181)=  1.000000000000
  lambda(182)=  1.000000000000
  lambda(183)=  1.000000000000
  lambda(184)=  1.000000000000
  lambda(185)=  1.000000000000
  lambda(186)=  1.000000000000
  lambda(187)=  1.000000000000
  lambda(188)=  1.000000000000
  lambda(189)=  1.000000000000
  lambda(190)=  1.000000000000
  lambda(191)=  1.000000000000
  lambda(192)=  1.000000000000
  lambda(193)=  1.000000000000
  lambda(194)=  1.000000000000
  lambda(195)=  1.000000000000
  lambda(196)=  1.000000000000
  lambda(197)=  1.000000000000
  lambda(198)=  1.000000000000
  lambda(199)=  1.000000000000
  lambda(200)=  1.000000000000
  lambda(201)=  1.000000000000
  lambda(202)=  1.000000000000
  lambda(203)=  1.000000000000
  lambda(204)=  1.000000000000
  lambda(205)=  1.000000000000
  lambda(206)=  1.000000000000
  lambda(207)=  1.000000000000
  lambda(208)=  1.000000000000
  lambda(209)=  1.000000000000
  lambda(210)=  1.000000000000
  lambda(211)=  1.000000000000
  lambda(212)=  1.000000000000
  lambda(213)=  1.000000000000
  lambda(214)=  1.000000000000
  lambda(215)=  1.000000000000
  lambda(216)=  1.000000000000
  lambda(217)=  1.000000000000
  lambda(218)=  1.000000000000
  lambda(219)=  1.000000000000
  lambda(220)=  1.000000000000
  lambda(221)=  1.000000000000
  lambda(222)=  1.000000000000
  lambda(223)=  1.000000000000
  lambda(224)=  1.000000000000
  lambda(225)=  1.000000000000
  lambda(226)=  1.000000000000
  lambda(227)=  1.000000000000
  lambda(228)=  1.000000000000
  lambda(229)=  1.000000000000
  lambda(230)=  1.000000000000
  lambda(231)=  1.000000000000
  lambda(232)=  1.000000000000
  lambda(233)=  1.000000000000
  lambda(234)=  1.000000000000
  lambda(235)=  1.000000000000
  lambda(236)=  1.000000000000
  lambda(237)=  1.000000000000
  lambda(238)=  1.000000000000
  lambda(239)=  1.000000000000
  lambda(240)=  1.000000000000

 K-point   3 ndimwin: 240 we want the155 leading eigenvector(s) of QPQ
  lambda(  1)= -0.000000000000
  lambda(  2)= -0.000000000000
  lambda(  3)= -0.000000000000
  lambda(  4)= -0.000000000000
  lambda(  5)= -0.000000000000
  lambda(  6)= -0.000000000000
  lambda(  7)= -0.000000000000
  lambda(  8)= -0.000000000000
  lambda(  9)= -0.000000000000
  lambda( 10)= -0.000000000000
  lambda( 11)= -0.000000000000
  lambda( 12)= -0.000000000000
  lambda( 13)= -0.000000000000
  lambda( 14)= -0.000000000000
  lambda( 15)= -0.000000000000
  lambda( 16)= -0.000000000000
  lambda( 17)= -0.000000000000
  lambda( 18)= -0.000000000000
  lambda( 19)= -0.000000000000
  lambda( 20)= -0.000000000000
  lambda( 21)= -0.000000000000
  lambda( 22)= -0.000000000000
  lambda( 23)= -0.000000000000
  lambda( 24)= -0.000000000000
  lambda( 25)= -0.000000000000
  lambda( 26)= -0.000000000000
  lambda( 27)= -0.000000000000
  lambda( 28)= -0.000000000000
  lambda( 29)= -0.000000000000
  lambda( 30)= -0.000000000000
  lambda( 31)= -0.000000000000
  lambda( 32)= -0.000000000000
  lambda( 33)= -0.000000000000
  lambda( 34)= -0.000000000000
  lambda( 35)= -0.000000000000
  lambda( 36)= -0.000000000000
  lambda( 37)=  0.000000000000
  lambda( 38)=  0.000000000000
  lambda( 39)=  0.000000000000
  lambda( 40)=  0.000000000000
  lambda( 41)=  0.000000000000
  lambda( 42)=  0.000000000000
  lambda( 43)=  0.000000000000
  lambda( 44)=  0.000000000000
  lambda( 45)=  0.000000000000
  lambda( 46)=  0.000000000000
  lambda( 47)=  0.000000000000
  lambda( 48)=  0.000000000000
  lambda( 49)=  0.000000000000
  lambda( 50)=  0.000000000000
  lambda( 51)=  0.000000000000
  lambda( 52)=  0.000000000000
  lambda( 53)=  0.000000000000
  lambda( 54)=  0.000000000000
  lambda( 55)=  0.000000000000
  lambda( 56)=  0.000000000000
  lambda( 57)=  0.000000000000
  lambda( 58)=  0.000000000000
  lambda( 59)=  0.000000000000
  lambda( 60)=  0.000000000000
  lambda( 61)=  0.000000000000
  lambda( 62)=  0.000000000000
  lambda( 63)=  0.000000000000
  lambda( 64)=  0.000000000000
  lambda( 65)=  0.000534611694
  lambda( 66)=  0.005191476628
  lambda( 67)=  0.005340257644
  lambda( 68)=  0.008570948059
  lambda( 69)=  0.008999430811
  lambda( 70)=  0.010145603091
  lambda( 71)=  0.010968189093
  lambda( 72)=  0.011831368857
  lambda( 73)=  0.015646237490
  lambda( 74)=  0.017804561831
  lambda( 75)=  0.020359593700
  lambda( 76)=  0.023238551680
  lambda( 77)=  0.025865855189
  lambda( 78)=  0.041341898051
  lambda( 79)=  0.041711250274
  lambda( 80)=  0.046494674923
  lambda( 81)=  0.048672994369
  lambda( 82)=  0.049376813223
  lambda( 83)=  0.051659736084
  lambda( 84)=  0.053792505913
  lambda( 85)=  0.055091728943
  lambda( 86)=  1.000000000000
  lambda( 87)=  1.000000000000
  lambda( 88)=  1.000000000000
  lambda( 89)=  1.000000000000
  lambda( 90)=  1.000000000000
  lambda( 91)=  1.000000000000
  lambda( 92)=  1.000000000000
  lambda( 93)=  1.000000000000
  lambda( 94)=  1.000000000000
  lambda( 95)=  1.000000000000
  lambda( 96)=  1.000000000000
  lambda( 97)=  1.000000000000
  lambda( 98)=  1.000000000000
  lambda( 99)=  1.000000000000
  lambda(100)=  1.000000000000
  lambda(101)=  1.000000000000
  lambda(102)=  1.000000000000
  lambda(103)=  1.000000000000
  lambda(104)=  1.000000000000
  lambda(105)=  1.000000000000
  lambda(106)=  1.000000000000
  lambda(107)=  1.000000000000
  lambda(108)=  1.000000000000
  lambda(109)=  1.000000000000
  lambda(110)=  1.000000000000
  lambda(111)=  1.000000000000
  lambda(112)=  1.000000000000
  lambda(113)=  1.000000000000
  lambda(114)=  1.000000000000
  lambda(115)=  1.000000000000
  lambda(116)=  1.000000000000
  lambda(117)=  1.000000000000
  lambda(118)=  1.000000000000
  lambda(119)=  1.000000000000
  lambda(120)=  1.000000000000
  lambda(121)=  1.000000000000
  lambda(122)=  1.000000000000
  lambda(123)=  1.000000000000
  lambda(124)=  1.000000000000
  lambda(125)=  1.000000000000
  lambda(126)=  1.000000000000
  lambda(127)=  1.000000000000
  lambda(128)=  1.000000000000
  lambda(129)=  1.000000000000
  lambda(130)=  1.000000000000
  lambda(131)=  1.000000000000
  lambda(132)=  1.000000000000
  lambda(133)=  1.000000000000
  lambda(134)=  1.000000000000
  lambda(135)=  1.000000000000
  lambda(136)=  1.000000000000
  lambda(137)=  1.000000000000
  lambda(138)=  1.000000000000
  lambda(139)=  1.000000000000
  lambda(140)=  1.000000000000
  lambda(141)=  1.000000000000
  lambda(142)=  1.000000000000
  lambda(143)=  1.000000000000
  lambda(144)=  1.000000000000
  lambda(145)=  1.000000000000
  lambda(146)=  1.000000000000
  lambda(147)=  1.000000000000
  lambda(148)=  1.000000000000
  lambda(149)=  1.000000000000
  lambda(150)=  1.000000000000
  lambda(151)=  1.000000000000
  lambda(152)=  1.000000000000
  lambda(153)=  1.000000000000
  lambda(154)=  1.000000000000
  lambda(155)=  1.000000000000
  lambda(156)=  1.000000000000
  lambda(157)=  1.000000000000
  lambda(158)=  1.000000000000
  lambda(159)=  1.000000000000
  lambda(160)=  1.000000000000
  lambda(161)=  1.000000000000
  lambda(162)=  1.000000000000
  lambda(163)=  1.000000000000
  lambda(164)=  1.000000000000
  lambda(165)=  1.000000000000
  lambda(166)=  1.000000000000
  lambda(167)=  1.000000000000
  lambda(168)=  1.000000000000
  lambda(169)=  1.000000000000
  lambda(170)=  1.000000000000
  lambda(171)=  1.000000000000
  lambda(172)=  1.000000000000
  lambda(173)=  1.000000000000
  lambda(174)=  1.000000000000
  lambda(175)=  1.000000000000
  lambda(176)=  1.000000000000
  lambda(177)=  1.000000000000
  lambda(178)=  1.000000000000
  lambda(179)=  1.000000000000
  lambda(180)=  1.000000000000
  lambda(181)=  1.000000000000
  lambda(182)=  1.000000000000
  lambda(183)=  1.000000000000
  lambda(184)=  1.000000000000
  lambda(185)=  1.000000000000
  lambda(186)=  1.000000000000
  lambda(187)=  1.000000000000
  lambda(188)=  1.000000000000
  lambda(189)=  1.000000000000
  lambda(190)=  1.000000000000
  lambda(191)=  1.000000000000
  lambda(192)=  1.000000000000
  lambda(193)=  1.000000000000
  lambda(194)=  1.000000000000
  lambda(195)=  1.000000000000
  lambda(196)=  1.000000000000
  lambda(197)=  1.000000000000
  lambda(198)=  1.000000000000
  lambda(199)=  1.000000000000
  lambda(200)=  1.000000000000
  lambda(201)=  1.000000000000
  lambda(202)=  1.000000000000
  lambda(203)=  1.000000000000
  lambda(204)=  1.000000000000
  lambda(205)=  1.000000000000
  lambda(206)=  1.000000000000
  lambda(207)=  1.000000000000
  lambda(208)=  1.000000000000
  lambda(209)=  1.000000000000
  lambda(210)=  1.000000000000
  lambda(211)=  1.000000000000
  lambda(212)=  1.000000000000
  lambda(213)=  1.000000000000
  lambda(214)=  1.000000000000
  lambda(215)=  1.000000000000
  lambda(216)=  1.000000000000
  lambda(217)=  1.000000000000
  lambda(218)=  1.000000000000
  lambda(219)=  1.000000000000
  lambda(220)=  1.000000000000
  lambda(221)=  1.000000000000
  lambda(222)=  1.000000000000
  lambda(223)=  1.000000000000
  lambda(224)=  1.000000000000
  lambda(225)=  1.000000000000
  lambda(226)=  1.000000000000
  lambda(227)=  1.000000000000
  lambda(228)=  1.000000000000
  lambda(229)=  1.000000000000
  lambda(230)=  1.000000000000
  lambda(231)=  1.000000000000
  lambda(232)=  1.000000000000
  lambda(233)=  1.000000000000
  lambda(234)=  1.000000000000
  lambda(235)=  1.000000000000
  lambda(236)=  1.000000000000
  lambda(237)=  1.000000000000
  lambda(238)=  1.000000000000
  lambda(239)=  1.000000000000
  lambda(240)=  1.000000000000

 K-point   4 ndimwin: 240 we want the159 leading eigenvector(s) of QPQ
  lambda(  1)= -0.000000000000
  lambda(  2)= -0.000000000000
  lambda(  3)= -0.000000000000
  lambda(  4)= -0.000000000000
  lambda(  5)= -0.000000000000
  lambda(  6)= -0.000000000000
  lambda(  7)= -0.000000000000
  lambda(  8)= -0.000000000000
  lambda(  9)= -0.000000000000
  lambda( 10)= -0.000000000000
  lambda( 11)= -0.000000000000
  lambda( 12)= -0.000000000000
  lambda( 13)= -0.000000000000
  lambda( 14)= -0.000000000000
  lambda( 15)= -0.000000000000
  lambda( 16)= -0.000000000000
  lambda( 17)= -0.000000000000
  lambda( 18)= -0.000000000000
  lambda( 19)= -0.000000000000
  lambda( 20)= -0.000000000000
  lambda( 21)= -0.000000000000
  lambda( 22)= -0.000000000000
  lambda( 23)= -0.000000000000
  lambda( 24)= -0.000000000000
  lambda( 25)= -0.000000000000
  lambda( 26)= -0.000000000000
  lambda( 27)= -0.000000000000
  lambda( 28)= -0.000000000000
  lambda( 29)= -0.000000000000
  lambda( 30)= -0.000000000000
  lambda( 31)= -0.000000000000
  lambda( 32)= -0.000000000000
  lambda( 33)= -0.000000000000
  lambda( 34)= -0.000000000000
  lambda( 35)= -0.000000000000
  lambda( 36)= -0.000000000000
  lambda( 37)= -0.000000000000
  lambda( 38)=  0.000000000000
  lambda( 39)=  0.000000000000
  lambda( 40)=  0.000000000000
  lambda( 41)=  0.000000000000
  lambda( 42)=  0.000000000000
  lambda( 43)=  0.000000000000
  lambda( 44)=  0.000000000000
  lambda( 45)=  0.000000000000
  lambda( 46)=  0.000000000000
  lambda( 47)=  0.000000000000
  lambda( 48)=  0.000000000000
  lambda( 49)=  0.000000000000
  lambda( 50)=  0.000000000000
  lambda( 51)=  0.000000000000
  lambda( 52)=  0.000000000000
  lambda( 53)=  0.000000000000
  lambda( 54)=  0.000000000000
  lambda( 55)=  0.000000000000
  lambda( 56)=  0.000000000000
  lambda( 57)=  0.000000000000
  lambda( 58)=  0.000000000000
  lambda( 59)=  0.000000000000
  lambda( 60)=  0.000000000000
  lambda( 61)=  0.000000000000
  lambda( 62)=  0.000000000000
  lambda( 63)=  0.000000000000
  lambda( 64)=  0.000000000000
  lambda( 65)=  0.000585564828
  lambda( 66)=  0.009382125829
  lambda( 67)=  0.010733975602
  lambda( 68)=  0.010918247532
  lambda( 69)=  0.015696245275
  lambda( 70)=  0.018174715930
  lambda( 71)=  0.019932534685
  lambda( 72)=  0.026960273093
  lambda( 73)=  0.029441659484
  lambda( 74)=  0.039462899609
  lambda( 75)=  0.039566702219
  lambda( 76)=  0.045268019642
  lambda( 77)=  0.048163330391
  lambda( 78)=  0.052095838096
  lambda( 79)=  0.066197794500
  lambda( 80)=  0.066988808822
  lambda( 81)=  0.076807191235
  lambda( 82)=  1.000000000000
  lambda( 83)=  1.000000000000
  lambda( 84)=  1.000000000000
  lambda( 85)=  1.000000000000
  lambda( 86)=  1.000000000000
  lambda( 87)=  1.000000000000
  lambda( 88)=  1.000000000000
  lambda( 89)=  1.000000000000
  lambda( 90)=  1.000000000000
  lambda( 91)=  1.000000000000
  lambda( 92)=  1.000000000000
  lambda( 93)=  1.000000000000
  lambda( 94)=  1.000000000000
  lambda( 95)=  1.000000000000
  lambda( 96)=  1.000000000000
  lambda( 97)=  1.000000000000
  lambda( 98)=  1.000000000000
  lambda( 99)=  1.000000000000
  lambda(100)=  1.000000000000
  lambda(101)=  1.000000000000
  lambda(102)=  1.000000000000
  lambda(103)=  1.000000000000
  lambda(104)=  1.000000000000
  lambda(105)=  1.000000000000
  lambda(106)=  1.000000000000
  lambda(107)=  1.000000000000
  lambda(108)=  1.000000000000
  lambda(109)=  1.000000000000
  lambda(110)=  1.000000000000
  lambda(111)=  1.000000000000
  lambda(112)=  1.000000000000
  lambda(113)=  1.000000000000
  lambda(114)=  1.000000000000
  lambda(115)=  1.000000000000
  lambda(116)=  1.000000000000
  lambda(117)=  1.000000000000
  lambda(118)=  1.000000000000
  lambda(119)=  1.000000000000
  lambda(120)=  1.000000000000
  lambda(121)=  1.000000000000
  lambda(122)=  1.000000000000
  lambda(123)=  1.000000000000
  lambda(124)=  1.000000000000
  lambda(125)=  1.000000000000
  lambda(126)=  1.000000000000
  lambda(127)=  1.000000000000
  lambda(128)=  1.000000000000
  lambda(129)=  1.000000000000
  lambda(130)=  1.000000000000
  lambda(131)=  1.000000000000
  lambda(132)=  1.000000000000
  lambda(133)=  1.000000000000
  lambda(134)=  1.000000000000
  lambda(135)=  1.000000000000
  lambda(136)=  1.000000000000
  lambda(137)=  1.000000000000
  lambda(138)=  1.000000000000
  lambda(139)=  1.000000000000
  lambda(140)=  1.000000000000
  lambda(141)=  1.000000000000
  lambda(142)=  1.000000000000
  lambda(143)=  1.000000000000
  lambda(144)=  1.000000000000
  lambda(145)=  1.000000000000
  lambda(146)=  1.000000000000
  lambda(147)=  1.000000000000
  lambda(148)=  1.000000000000
  lambda(149)=  1.000000000000
  lambda(150)=  1.000000000000
  lambda(151)=  1.000000000000
  lambda(152)=  1.000000000000
  lambda(153)=  1.000000000000
  lambda(154)=  1.000000000000
  lambda(155)=  1.000000000000
  lambda(156)=  1.000000000000
  lambda(157)=  1.000000000000
  lambda(158)=  1.000000000000
  lambda(159)=  1.000000000000
  lambda(160)=  1.000000000000
  lambda(161)=  1.000000000000
  lambda(162)=  1.000000000000
  lambda(163)=  1.000000000000
  lambda(164)=  1.000000000000
  lambda(165)=  1.000000000000
  lambda(166)=  1.000000000000
  lambda(167)=  1.000000000000
  lambda(168)=  1.000000000000
  lambda(169)=  1.000000000000
  lambda(170)=  1.000000000000
  lambda(171)=  1.000000000000
  lambda(172)=  1.000000000000
  lambda(173)=  1.000000000000
  lambda(174)=  1.000000000000
  lambda(175)=  1.000000000000
  lambda(176)=  1.000000000000
  lambda(177)=  1.000000000000
  lambda(178)=  1.000000000000
  lambda(179)=  1.000000000000
  lambda(180)=  1.000000000000
  lambda(181)=  1.000000000000
  lambda(182)=  1.000000000000
  lambda(183)=  1.000000000000
  lambda(184)=  1.000000000000
  lambda(185)=  1.000000000000
  lambda(186)=  1.000000000000
  lambda(187)=  1.000000000000
  lambda(188)=  1.000000000000
  lambda(189)=  1.000000000000
  lambda(190)=  1.000000000000
  lambda(191)=  1.000000000000
  lambda(192)=  1.000000000000
  lambda(193)=  1.000000000000
  lambda(194)=  1.000000000000
  lambda(195)=  1.000000000000
  lambda(196)=  1.000000000000
  lambda(197)=  1.000000000000
  lambda(198)=  1.000000000000
  lambda(199)=  1.000000000000
  lambda(200)=  1.000000000000
  lambda(201)=  1.000000000000
  lambda(202)=  1.000000000000
  lambda(203)=  1.000000000000
  lambda(204)=  1.000000000000
  lambda(205)=  1.000000000000
  lambda(206)=  1.000000000000
  lambda(207)=  1.000000000000
  lambda(208)=  1.000000000000
  lambda(209)=  1.000000000000
  lambda(210)=  1.000000000000
  lambda(211)=  1.000000000000
  lambda(212)=  1.000000000000
  lambda(213)=  1.000000000000
  lambda(214)=  1.000000000000
  lambda(215)=  1.000000000000
  lambda(216)=  1.000000000000
  lambda(217)=  1.000000000000
  lambda(218)=  1.000000000000
  lambda(219)=  1.000000000000
  lambda(220)=  1.000000000000
  lambda(221)=  1.000000000000
  lambda(222)=  1.000000000000
  lambda(223)=  1.000000000000
  lambda(224)=  1.000000000000
  lambda(225)=  1.000000000000
  lambda(226)=  1.000000000000
  lambda(227)=  1.000000000000
  lambda(228)=  1.000000000000
  lambda(229)=  1.000000000000
  lambda(230)=  1.000000000000
  lambda(231)=  1.000000000000
  lambda(232)=  1.000000000000
  lambda(233)=  1.000000000000
  lambda(234)=  1.000000000000
  lambda(235)=  1.000000000000
  lambda(236)=  1.000000000000
  lambda(237)=  1.000000000000
  lambda(238)=  1.000000000000
  lambda(239)=  1.000000000000
  lambda(240)=  1.000000000000

 K-point   5 ndimwin: 240 we want the159 leading eigenvector(s) of QPQ
  lambda(  1)= -0.000000000000
  lambda(  2)= -0.000000000000
  lambda(  3)= -0.000000000000
  lambda(  4)= -0.000000000000
  lambda(  5)= -0.000000000000
  lambda(  6)= -0.000000000000
  lambda(  7)= -0.000000000000
  lambda(  8)= -0.000000000000
  lambda(  9)= -0.000000000000
  lambda( 10)= -0.000000000000
  lambda( 11)= -0.000000000000
  lambda( 12)= -0.000000000000
  lambda( 13)= -0.000000000000
  lambda( 14)= -0.000000000000
  lambda( 15)= -0.000000000000
  lambda( 16)= -0.000000000000
  lambda( 17)= -0.000000000000
  lambda( 18)= -0.000000000000
  lambda( 19)= -0.000000000000
  lambda( 20)= -0.000000000000
  lambda( 21)= -0.000000000000
  lambda( 22)= -0.000000000000
  lambda( 23)= -0.000000000000
  lambda( 24)= -0.000000000000
  lambda( 25)= -0.000000000000
  lambda( 26)= -0.000000000000
  lambda( 27)= -0.000000000000
  lambda( 28)= -0.000000000000
  lambda( 29)= -0.000000000000
  lambda( 30)=  0.000000000000
  lambda( 31)=  0.000000000000
  lambda( 32)=  0.000000000000
  lambda( 33)=  0.000000000000
  lambda( 34)=  0.000000000000
  lambda( 35)=  0.000000000000
  lambda( 36)=  0.000000000000
  lambda( 37)=  0.000000000000
  lambda( 38)=  0.000000000000
  lambda( 39)=  0.000000000000
  lambda( 40)=  0.000000000000
  lambda( 41)=  0.000000000000
  lambda( 42)=  0.000000000000
  lambda( 43)=  0.000000000000
  lambda( 44)=  0.000000000000
  lambda( 45)=  0.000000000000
  lambda( 46)=  0.000000000000
  lambda( 47)=  0.000000000000
  lambda( 48)=  0.000000000000
  lambda( 49)=  0.000000000000
  lambda( 50)=  0.000000000000
  lambda( 51)=  0.000000000000
  lambda( 52)=  0.000000000000
  lambda( 53)=  0.000000000000
  lambda( 54)=  0.000000000000
  lambda( 55)=  0.000000000000
  lambda( 56)=  0.000000000000
  lambda( 57)=  0.000000000000
  lambda( 58)=  0.000000000000
  lambda( 59)=  0.000000000000
  lambda( 60)=  0.000000000000
  lambda( 61)=  0.000000000000
  lambda( 62)=  0.000000000000
  lambda( 63)=  0.000000000000
  lambda( 64)=  0.000000000000
  lambda( 65)=  0.000585565656
  lambda( 66)=  0.009382132903
  lambda( 67)=  0.010733978581
  lambda( 68)=  0.010918251496
  lambda( 69)=  0.015696225304
  lambda( 70)=  0.018174703900
  lambda( 71)=  0.019932514131
  lambda( 72)=  0.026960257534
  lambda( 73)=  0.029441655912
  lambda( 74)=  0.039462903552
  lambda( 75)=  0.039566713235
  lambda( 76)=  0.045268016769
  lambda( 77)=  0.048163333309
  lambda( 78)=  0.052095840789
  lambda( 79)=  0.066197787815
  lambda( 80)=  0.066988810510
  lambda( 81)=  0.076807189852
  lambda( 82)=  1.000000000000
  lambda( 83)=  1.000000000000
  lambda( 84)=  1.000000000000
  lambda( 85)=  1.000000000000
  lambda( 86)=  1.000000000000
  lambda( 87)=  1.000000000000
  lambda( 88)=  1.000000000000
  lambda( 89)=  1.000000000000
  lambda( 90)=  1.000000000000
  lambda( 91)=  1.000000000000
  lambda( 92)=  1.000000000000
  lambda( 93)=  1.000000000000
  lambda( 94)=  1.000000000000
  lambda( 95)=  1.000000000000
  lambda( 96)=  1.000000000000
  lambda( 97)=  1.000000000000
  lambda( 98)=  1.000000000000
  lambda( 99)=  1.000000000000
  lambda(100)=  1.000000000000
  lambda(101)=  1.000000000000
  lambda(102)=  1.000000000000
  lambda(103)=  1.000000000000
  lambda(104)=  1.000000000000
  lambda(105)=  1.000000000000
  lambda(106)=  1.000000000000
  lambda(107)=  1.000000000000
  lambda(108)=  1.000000000000
  lambda(109)=  1.000000000000
  lambda(110)=  1.000000000000
  lambda(111)=  1.000000000000
  lambda(112)=  1.000000000000
  lambda(113)=  1.000000000000
  lambda(114)=  1.000000000000
  lambda(115)=  1.000000000000
  lambda(116)=  1.000000000000
  lambda(117)=  1.000000000000
  lambda(118)=  1.000000000000
  lambda(119)=  1.000000000000
  lambda(120)=  1.000000000000
  lambda(121)=  1.000000000000
  lambda(122)=  1.000000000000
  lambda(123)=  1.000000000000
  lambda(124)=  1.000000000000
  lambda(125)=  1.000000000000
  lambda(126)=  1.000000000000
  lambda(127)=  1.000000000000
  lambda(128)=  1.000000000000
  lambda(129)=  1.000000000000
  lambda(130)=  1.000000000000
  lambda(131)=  1.000000000000
  lambda(132)=  1.000000000000
  lambda(133)=  1.000000000000
  lambda(134)=  1.000000000000
  lambda(135)=  1.000000000000
  lambda(136)=  1.000000000000
  lambda(137)=  1.000000000000
  lambda(138)=  1.000000000000
  lambda(139)=  1.000000000000
  lambda(140)=  1.000000000000
  lambda(141)=  1.000000000000
  lambda(142)=  1.000000000000
  lambda(143)=  1.000000000000
  lambda(144)=  1.000000000000
  lambda(145)=  1.000000000000
  lambda(146)=  1.000000000000
[...]
  WF centre and spread   86  (  1.742390,  1.020518,  3.345628 )     1.98718619
  WF centre and spread   87  (  5.198264,  0.993405, -0.088257 )     1.98287681
  WF centre and spread   88  (  5.200223,  0.986497,  0.034371 )     1.98072991
  WF centre and spread   89  (  5.198737,  1.019251,  0.035585 )     1.98739464
  WF centre and spread   90  (  5.197714,  0.994572,  3.469393 )     1.98252698
  WF centre and spread   91  (  5.199697,  0.987680,  3.346705 )     1.98078424
  WF centre and spread   92  (  5.198244,  1.020518,  3.345628 )     1.98718625
  WF centre and spread   93  ( -0.001950,  4.003745, -0.077225 )     1.97193087
  WF centre and spread   94  ( -0.002229,  3.992153,  0.046408 )     1.97917932
  WF centre and spread   95  ( -0.000773,  4.022445,  0.048368 )     1.98099228
  WF centre and spread   96  ( -0.001247,  4.004145,  3.455989 )     1.97174040
  WF centre and spread   97  ( -0.001459,  3.992492,  3.332336 )     1.97925834
  WF centre and spread   98  ( -0.000092,  4.022950,  3.330432 )     1.98097079
  WF centre and spread   99  (  3.470317,  4.081996, -0.024634 )     1.93196179
  WF centre and spread  100  (  3.470317,  4.055668,  0.104019 )     1.97940560
  WF centre and spread  101  (  3.470317,  4.102486,  0.112809 )     1.98761569
  WF centre and spread  102  (  3.470317,  4.081186,  3.401809 )     1.93206600
  WF centre and spread  103  (  3.470317,  4.054928,  3.273113 )     1.97941593
  WF centre and spread  104  (  3.470317,  4.101985,  3.264612 )     1.98795740
  WF centre and spread  105  (  8.670343,  0.996058, -0.095155 )     1.98498192
  WF centre and spread  106  (  8.667387,  0.984482,  0.023777 )     1.98057361
  WF centre and spread  107  (  8.669830,  1.013080,  0.022181 )     1.98137591
  WF centre and spread  108  (  8.670449,  0.996122,  3.477764 )     1.98452144
  WF centre and spread  109  (  8.667519,  0.984539,  3.358807 )     1.98040949
  WF centre and spread  110  (  8.669941,  1.013163,  3.360443 )     1.98110779
  WF centre and spread  111  (  6.942585,  4.003745, -0.077225 )     1.97193065
  WF centre and spread  112  (  6.942863,  3.992153,  0.046408 )     1.97917935
  WF centre and spread  113  (  6.941407,  4.022445,  0.048368 )     1.98099245
  WF centre and spread  114  (  6.941881,  4.004145,  3.455989 )     1.97174040
  WF centre and spread  115  (  6.942094,  3.992492,  3.332336 )     1.97925837
  WF centre and spread  116  (  6.940726,  4.022950,  3.330432 )     1.98097093
  WF centre and spread  117  (  5.138989,  6.971791, -0.024933 )     1.93347120
  WF centre and spread  118  (  5.141795,  6.957982,  0.110790 )     1.98485056
  WF centre and spread  119  (  5.145863,  6.998313,  0.106304 )     1.98102670
  WF centre and spread  120  (  5.139681,  6.972192,  3.402108 )     1.93356632
  WF centre and spread  121  (  5.142249,  6.958318,  3.266558 )     1.98512053
  WF centre and spread  122  (  5.146491,  6.998601,  3.270900 )     1.98112901
  WF centre and spread  123  (  1.801645,  6.971791, -0.024933 )     1.93347144
  WF centre and spread  124  (  1.798839,  6.957982,  0.110790 )     1.98485058
  WF centre and spread  125  (  1.794771,  6.998313,  0.106304 )     1.98102666
  WF centre and spread  126  (  1.800953,  6.972192,  3.402108 )     1.93356670
  WF centre and spread  127  (  1.798385,  6.958318,  3.266558 )     1.98512063
  WF centre and spread  128  (  1.794143,  6.998601,  3.270900 )     1.98112895
  WF centre and spread  129  ( -1.736885,  7.019199, -0.088188 )     1.98290395
  WF centre and spread  130  ( -1.730157,  7.004563,  0.035865 )     1.98607200
  WF centre and spread  131  ( -1.733944,  7.033134,  0.034009 )     1.98227682
  WF centre and spread  132  ( -1.735594,  7.019101,  3.469323 )     1.98256049
  WF centre and spread  133  ( -1.728835,  7.004406,  3.345274 )     1.98599724
  WF centre and spread  134  ( -1.732639,  7.032943,  3.347143 )     1.98219333
  WF centre and spread  135  ( 12.151560,  0.996058, -0.095155 )     1.98498236
  WF centre and spread  136  ( 12.154516,  0.984482,  0.023777 )     1.98057372
  WF centre and spread  137  ( 12.152072,  1.013080,  0.022181 )     1.98137588
  WF centre and spread  138  ( 12.151454,  0.996122,  3.477764 )     1.98452171
  WF centre and spread  139  ( 12.154383,  0.984539,  3.358807 )     1.98040959
  WF centre and spread  140  ( 12.151961,  1.013163,  3.360443 )     1.98110776
  WF centre and spread  141  ( 10.410951,  4.010952, -0.095106 )     1.98494133
  WF centre and spread  142  ( 10.410951,  4.000194,  0.021402 )     1.98115661
  WF centre and spread  143  ( 10.410951,  4.032888,  0.024505 )     1.98089463
  WF centre and spread  144  ( 10.410951,  4.010838,  3.477713 )     1.98449180
  WF centre and spread  145  ( 10.410951,  4.000057,  3.361243 )     1.98083338
  WF centre and spread  146  ( 10.410951,  4.032739,  3.358060 )     1.98077742
  WF centre and spread  147  (  8.677519,  7.019199, -0.088188 )     1.98290444
  WF centre and spread  148  (  8.670791,  7.004563,  0.035865 )     1.98607200
  WF centre and spread  149  (  8.674579,  7.033134,  0.034009 )     1.98227676
  WF centre and spread  150  (  8.676228,  7.019101,  3.469323 )     1.98256098
  WF centre and spread  151  (  8.669469,  7.004406,  3.345274 )     1.98599721
  WF centre and spread  152  (  8.673273,  7.032943,  3.347143 )     1.98219331
  WF centre and spread  153  (  6.949301, 10.012318, -0.088159 )     1.98273178
  WF centre and spread  154  (  6.943092,  9.999388,  0.034643 )     1.98505531
  WF centre and spread  155  (  6.944215, 10.028115,  0.035223 )     1.98334709
  WF centre and spread  156  (  6.948570, 10.011265,  3.469294 )     1.98239548
  WF centre and spread  157  (  6.942228,  9.998340,  3.346578 )     1.98483647
  WF centre and spread  158  (  6.943462, 10.027050,  3.345848 )     1.98339989
  WF centre and spread  159  (  3.470317, 10.017613, -0.077155 )     1.97147533
  WF centre and spread  160  (  3.470317, 10.004378,  0.049336 )     1.98146698
  WF centre and spread  161  (  3.470317, 10.037189,  0.045372 )     1.97885855
  WF centre and spread  162  (  3.470317, 10.016799,  3.455919 )     1.97129070
  WF centre and spread  163  (  3.470317, 10.003537,  3.329492 )     1.98139571
  WF centre and spread  164  (  3.470317, 10.036361,  3.333345 )     1.97898391
  WF centre and spread  165  ( -0.008666, 10.012318, -0.088159 )     1.98273142
  WF centre and spread  166  ( -0.002458,  9.999388,  0.034643 )     1.98505526
  WF centre and spread  167  ( -0.003580, 10.028115,  0.035223 )     1.98334692
  WF centre and spread  168  ( -0.007935, 10.011265,  3.469294 )     1.98239547
  WF centre and spread  169  ( -0.001595,  9.998340,  3.346578 )     1.98483641
  WF centre and spread  170  ( -0.002828, 10.027050,  3.345848 )     1.98339978
  WF centre and spread  171  ( -3.470317, 10.015628, -0.093175 )     1.98149672
  WF centre and spread  172  ( -3.470317, 10.005202,  0.027332 )     1.98457984
  WF centre and spread  173  ( -3.470317, 10.032640,  0.027314 )     1.98499042
  WF centre and spread  174  ( -3.470317, 10.015629,  3.474974 )     1.98100836
  WF centre and spread  175  ( -3.470317, 10.005172,  3.354561 )     1.98440629
  WF centre and spread  176  ( -3.470317, 10.032671,  3.354580 )     1.98481614
  Sum of centres and spreads (624.657074,889.594984,297.406712 )   334.18717300
 
         Spreads (Ang^2)       Omega I      =   318.136358583
        ================       Omega D      =     0.000187905
                               Omega OD     =    16.050625720
    Final Spread (Ang^2)       Omega Total  =   334.187172208
 ------------------------------------------------------------------------------
 Final centres (translated to home cell for writing xyz file)
  WF centre    1  (  3.470317,  6.010678,  1.687784 )
  WF centre    2  (  3.470317,  6.035579,  1.688036 )
  WF centre    3  (  3.470317,  5.985885,  1.688036 )
  WF centre    4  (  3.470317,  6.035664,  1.687781 )
  WF centre    5  (  3.470317,  5.985930,  1.687782 )
  WF centre    6  ( -0.000076, -0.002294,  1.690753 )
  WF centre    7  ( -0.001499,  0.028526,  1.690868 )
  WF centre    8  ( -0.001347, -0.027005,  1.690834 )
  WF centre    9  (  0.002111,  0.134920,  1.690747 )
  WF centre   10  ( -0.006877, -0.128990,  1.690756 )
  WF centre   11  (  3.470317, -0.009295,  1.689694 )
  WF centre   12  (  3.470317,  0.018497,  1.690105 )
  WF centre   13  (  3.470317, -0.039580,  1.690099 )
  WF centre   14  (  3.470317,  0.128416,  1.689796 )
  WF centre   15  (  3.470317, -0.140216,  1.689819 )
  WF centre   16  ( -1.782880,  2.975283,  1.689890 )
  WF centre   17  ( -1.777291,  3.002725,  1.690105 )
  WF centre   18  ( -1.787144,  2.953579,  1.690263 )
  WF centre   19  ( -1.773288,  3.108543,  1.689975 )
  WF centre   20  ( -1.796845,  2.848043,  1.689980 )
  WF centre   21  (  1.717063,  2.998815,  1.688133 )
  WF centre   22  (  1.717755,  3.021805,  1.688535 )
  WF centre   23  (  1.715235,  2.968167,  1.688750 )
  WF centre   24  (  1.725808,  3.138563,  1.688325 )
  WF centre   25  (  1.710172,  2.864112,  1.688348 )
  WF centre   26  (  6.940710, -0.002294,  1.690753 )
  WF centre   27  (  6.942133,  0.028526,  1.690868 )
  WF centre   28  (  6.941981, -0.027005,  1.690834 )
  WF centre   29  (  6.938523,  0.134920,  1.690746 )
  WF centre   30  (  6.947511, -0.128990,  1.690756 )
  WF centre   31  (  5.223571,  2.998815,  1.688133 )
  WF centre   32  (  5.222879,  3.021805,  1.688535 )
  WF centre   33  (  5.225399,  2.968167,  1.688750 )
  WF centre   34  (  5.214826,  3.138563,  1.688325 )
  WF centre   35  (  5.230462,  2.864112,  1.688348 )
  WF centre   36  ( -0.011935,  5.994682,  1.688123 )
  WF centre   37  ( -0.016658,  6.026275,  1.688637 )
  WF centre   38  ( -0.019922,  5.973180,  1.688659 )
  WF centre   39  ( -0.015526,  6.135407,  1.688336 )
  WF centre   40  ( -0.012186,  5.865537,  1.688336 )
  WF centre   41  ( -3.470317,  6.008479,  1.690764 )
  WF centre   42  ( -3.470317,  6.036951,  1.690811 )
  WF centre   43  ( -3.470317,  5.981192,  1.690878 )
  WF centre   44  ( -3.470317,  6.138986,  1.690764 )
  WF centre   45  ( -3.470317,  5.880171,  1.690741 )
  WF centre   46  ( 10.410951,  0.053191,  1.689876 )
  WF centre   47  ( 10.410951,  0.086435,  1.690332 )
  WF centre   48  ( 10.410951,  0.022149,  1.690023 )
  WF centre   49  ( 10.410951,  0.195428,  1.689998 )
  WF centre   50  ( 10.410951, -0.077325,  1.689984 )
  WF centre   51  (  8.723514,  2.975283,  1.689890 )
  WF centre   52  (  8.717925,  3.002725,  1.690105 )
  WF centre   53  (  8.727778,  2.953579,  1.690263 )
  WF centre   54  (  8.713922,  3.108543,  1.689975 )
  WF centre   55  (  8.737479,  2.848043,  1.689980 )
  WF centre   56  (  6.952570,  5.994682,  1.688123 )
  WF centre   57  (  6.957293,  6.026275,  1.688637 )
  WF centre   58  (  6.960556,  5.973180,  1.688659 )
  WF centre   59  (  6.956160,  6.135407,  1.688336 )
  WF centre   60  (  6.952820,  5.865537,  1.688336 )
  WF centre   61  (  5.199386,  9.030384,  1.688125 )
  WF centre   62  (  5.205517,  9.066361,  1.688750 )
  WF centre   63  (  5.204695,  9.008488,  1.688511 )
  WF centre   64  (  5.203397,  9.173927,  1.688366 )
  WF centre   65  (  5.200840,  8.898118,  1.688338 )
  WF centre   66  (  1.741248,  9.030384,  1.688125 )
  WF centre   67  (  1.735117,  9.066361,  1.688750 )
  WF centre   68  (  1.735939,  9.008488,  1.688511 )
  WF centre   69  (  1.737237,  9.173927,  1.688366 )
  WF centre   70  (  1.739794,  8.898118,  1.688338 )
  WF centre   71  ( -1.740915,  9.017429,  1.689701 )
  WF centre   72  ( -1.744634,  9.049723,  1.690092 )
  WF centre   73  ( -1.743829,  8.992933,  1.690093 )
  WF centre   74  ( -1.741225,  9.155937,  1.689820 )
  WF centre   75  ( -1.742385,  8.887026,  1.689806 )
  WF centre   76  ( -5.199720,  9.017429,  1.689701 )
  WF centre   77  ( -5.196000,  9.049723,  1.690092 )
  WF centre   78  ( -5.196805,  8.992933,  1.690093 )
  WF centre   79  ( -5.199409,  9.155937,  1.689820 )
  WF centre   80  ( -5.198249,  8.887026,  1.689806 )
  WF centre   81  (  1.742370,  0.993405, -0.088257 )
  WF centre   82  (  1.740411,  0.986497,  0.034371 )
  WF centre   83  (  1.741897,  1.019251,  0.035585 )
  WF centre   84  (  1.742921,  0.994572,  3.469394 )
  WF centre   85  (  1.740937,  0.987680,  3.346705 )
  WF centre   86  (  1.742390,  1.020518,  3.345628 )
  WF centre   87  (  5.198264,  0.993405, -0.088257 )
  WF centre   88  (  5.200223,  0.986497,  0.034371 )
  WF centre   89  (  5.198737,  1.019251,  0.035585 )
  WF centre   90  (  5.197714,  0.994572,  3.469393 )
  WF centre   91  (  5.199697,  0.987680,  3.346705 )
  WF centre   92  (  5.198244,  1.020518,  3.345628 )
  WF centre   93  ( -0.001950,  4.003745, -0.077225 )
  WF centre   94  ( -0.002229,  3.992153,  0.046408 )
  WF centre   95  ( -0.000773,  4.022445,  0.048368 )
  WF centre   96  ( -0.001247,  4.004145,  3.455989 )
  WF centre   97  ( -0.001459,  3.992492,  3.332336 )
  WF centre   98  ( -0.000092,  4.022950,  3.330432 )
  WF centre   99  (  3.470317,  4.081996, -0.024634 )
  WF centre  100  (  3.470317,  4.055668,  0.104019 )
  WF centre  101  (  3.470317,  4.102486,  0.112809 )
  WF centre  102  (  3.470317,  4.081186,  3.401809 )
  WF centre  103  (  3.470317,  4.054928,  3.273113 )
  WF centre  104  (  3.470317,  4.101985,  3.264612 )
  WF centre  105  (  8.670343,  0.996058, -0.095155 )
  WF centre  106  (  8.667387,  0.984482,  0.023777 )
  WF centre  107  (  8.669830,  1.013080,  0.022181 )
  WF centre  108  (  8.670449,  0.996122,  3.477764 )
  WF centre  109  (  8.667519,  0.984539,  3.358807 )
  WF centre  110  (  8.669941,  1.013163,  3.360443 )
  WF centre  111  (  6.942585,  4.003745, -0.077225 )
  WF centre  112  (  6.942863,  3.992153,  0.046408 )
  WF centre  113  (  6.941407,  4.022445,  0.048368 )
  WF centre  114  (  6.941881,  4.004145,  3.455989 )
  WF centre  115  (  6.942094,  3.992492,  3.332336 )
  WF centre  116  (  6.940726,  4.022950,  3.330432 )
  WF centre  117  (  5.138989,  6.971791, -0.024933 )
  WF centre  118  (  5.141795,  6.957982,  0.110790 )
  WF centre  119  (  5.145863,  6.998313,  0.106304 )
  WF centre  120  (  5.139681,  6.972192,  3.402108 )
  WF centre  121  (  5.142249,  6.958318,  3.266558 )
  WF centre  122  (  5.146491,  6.998601,  3.270900 )
  WF centre  123  (  1.801645,  6.971791, -0.024933 )
  WF centre  124  (  1.798839,  6.957982,  0.110790 )
  WF centre  125  (  1.794771,  6.998313,  0.106304 )
  WF centre  126  (  1.800953,  6.972192,  3.402108 )
  WF centre  127  (  1.798385,  6.958318,  3.266558 )
  WF centre  128  (  1.794143,  6.998601,  3.270900 )
  WF centre  129  ( -1.736885,  7.019199, -0.088188 )
  WF centre  130  ( -1.730157,  7.004563,  0.035865 )
  WF centre  131  ( -1.733944,  7.033134,  0.034009 )
  WF centre  132  ( -1.735594,  7.019101,  3.469323 )
  WF centre  133  ( -1.728835,  7.004406,  3.345274 )
  WF centre  134  ( -1.732639,  7.032943,  3.347143 )
  WF centre  135  ( 12.151560,  0.996058, -0.095155 )
  WF centre  136  ( 12.154516,  0.984482,  0.023777 )
  WF centre  137  ( 12.152072,  1.013080,  0.022181 )
  WF centre  138  ( 12.151454,  0.996122,  3.477764 )
  WF centre  139  ( 12.154383,  0.984539,  3.358807 )
  WF centre  140  ( 12.151961,  1.013163,  3.360443 )
  WF centre  141  ( 10.410951,  4.010952, -0.095106 )
  WF centre  142  ( 10.410951,  4.000194,  0.021402 )
  WF centre  143  ( 10.410951,  4.032888,  0.024505 )
  WF centre  144  ( 10.410951,  4.010838,  3.477713 )
  WF centre  145  ( 10.410951,  4.000057,  3.361243 )
  WF centre  146  ( 10.410951,  4.032739,  3.358060 )
  WF centre  147  (  8.677519,  7.019199, -0.088188 )
  WF centre  148  (  8.670791,  7.004563,  0.035865 )
  WF centre  149  (  8.674579,  7.033134,  0.034009 )
  WF centre  150  (  8.676228,  7.019101,  3.469323 )
  WF centre  151  (  8.669469,  7.004406,  3.345274 )
  WF centre  152  (  8.673273,  7.032943,  3.347143 )
  WF centre  153  (  6.949301, 10.012318, -0.088159 )
  WF centre  154  (  6.943092,  9.999388,  0.034643 )
  WF centre  155  (  6.944215, 10.028115,  0.035223 )
  WF centre  156  (  6.948570, 10.011265,  3.469294 )
  WF centre  157  (  6.942228,  9.998340,  3.346578 )
  WF centre  158  (  6.943462, 10.027050,  3.345848 )
  WF centre  159  (  3.470317, 10.017613, -0.077155 )
  WF centre  160  (  3.470317, 10.004378,  0.049336 )
  WF centre  161  (  3.470317, 10.037189,  0.045372 )
  WF centre  162  (  3.470317, 10.016799,  3.455919 )
  WF centre  163  (  3.470317, 10.003537,  3.329492 )
  WF centre  164  (  3.470317, 10.036361,  3.333345 )
  WF centre  165  ( -0.008666, 10.012318, -0.088159 )
  WF centre  166  ( -0.002458,  9.999388,  0.034643 )
  WF centre  167  ( -0.003580, 10.028115,  0.035223 )
  WF centre  168  ( -0.007935, 10.011265,  3.469294 )
  WF centre  169  ( -0.001595,  9.998340,  3.346578 )
  WF centre  170  ( -0.002828, 10.027050,  3.345848 )
  WF centre  171  ( -3.470317, 10.015628, -0.093175 )
  WF centre  172  ( -3.470317, 10.005202,  0.027332 )
  WF centre  173  ( -3.470317, 10.032640,  0.027314 )
  WF centre  174  ( -3.470317, 10.015629,  3.474974 )
  WF centre  175  ( -3.470317, 10.005172,  3.354561 )
  WF centre  176  ( -3.470317, 10.032671,  3.354580 )
 ------------------------------------------------------------------------------
 

 Wannier centres written to file nbsefe.up_centres.xyz
  
  Omega Invariant:   1-s^2 =   318.136358583 (Ang^2)
                   -2log s =   324.662495475 (Ang^2)
                    acos^2 =   322.444038824 (Ang^2)
 Time for wannierise           43.021 (sec)

 Writing checkpoint file nbsefe.up.chk... done

 *---------------------------------------------------------------------------*
 |                               PLOTTING                                    |
 *---------------------------------------------------------------------------*
 
   19 lattice points in Wigner-Seitz supercell:

      vector  -2  -2   0   degeneracy:  2
      vector  -2  -1   0   degeneracy:  1
      vector  -2   0   0   degeneracy:  2
      vector  -1  -2   0   degeneracy:  1
      vector  -1  -1   0   degeneracy:  1
      vector  -1   0   0   degeneracy:  1
      vector  -1   1   0   degeneracy:  1
      vector   0  -2   0   degeneracy:  2
      vector   0  -1   0   degeneracy:  1
      vector   0   0   0   degeneracy:  1
      vector   0   1   0   degeneracy:  1
      vector   0   2   0   degeneracy:  2
      vector   1  -1   0   degeneracy:  1
      vector   1   0   0   degeneracy:  1
      vector   1   1   0   degeneracy:  1
      vector   1   2   0   degeneracy:  1
      vector   2   0   0   degeneracy:  2
      vector   2   1   0   degeneracy:  1
      vector   2   2   0   degeneracy:  2
  tot =       16.000
  mp_grid product =           16
 
 Calculating interpolated band-structure
 
 Time to calculate interpolated band structure      21.989 (sec)
 
 Time for plotting             25.199 (sec)
 Total Execution Time         200.833 (sec)

 *===========================================================================*
 |                             TIMING INFORMATION                            |
 *===========================================================================*
 |    Tag                                                Ncalls      Time (s)|
 |---------------------------------------------------------------------------|
 |kmesh: get                                        :         1         0.022|
 |overlap: allocate                                 :         1         0.008|
 |overlap: read                                     :         1        35.645|
 |dis: main                                         :         1        96.855|
 |wann: main                                        :         1        43.021|
 |plot: main                                        :         1        25.199|
 *---------------------------------------------------------------------------*
 
 All done: wannier90 exiting
