
     Program PWSCF v.6.8 starts on 12Jul2023 at 10: 7:11 

     This program is part of the open-source Quantum ESPRESSO suite
     for quantum simulation of materials; please cite
         "P. Giannozzi et al., J. Phys.:Condens. Matter 21 395502 (2009);
         "P. Giannozzi et al., J. Phys.:Condens. Matter 29 465901 (2017);
         "P. Giannozzi et al., J. Chem. Phys. 152 154105 (2020);
          URL http://www.quantum-espresso.org", 
     in publications or presentations arising from this work. More details at
     http://www.quantum-espresso.org/quote

     Parallel version (MPI & OpenMP), running on      80 processor cores
     Number of MPI processes:                80
     Threads/MPI process:                     1

     MPI processes distributed on     2 nodes
     R & G space division:  proc/nbgrp/npool/nimage =      80
     86280 MiB available memory on the printing compute node when the environment starts
 
     Reading input from nbsefe.scf.in

     Current dimensions of program PWSCF are:
     Max number of different atomic species (ntypx) = 10
     Max number of k-points (npk) =  40000
     Max angular momentum in pseudopotentials (lmaxx) =  4
     file Cr.pbe-spn-kjpaw_psl.1.0.0.UPF: wavefunction(s)  3S 3P 3D renormalized
     file Nb.pbe-spn-kjpaw_psl.1.0.0.UPF: wavefunction(s)  4S 4P 4D renormalized
     file Se.pbe-n-kjpaw_psl.1.0.0.UPF: wavefunction(s)  4S renormalized
     Message from routine setup:
     using ibrav=0 with symmetry is DISCOURAGED, use correct ibrav instead

     Subspace diagonalization in iterative solution of the eigenvalue problem:
     one sub-group per band group will be used
     scalapack distributed-memory algorithm (size of sub-group:  8*  8 procs)

 
     Parallelization info
     --------------------
     sticks:   dense  smooth     PW     G-vecs:    dense   smooth      PW
     Min         296     178     45                56844    26418    3477
     Max         297     179     46                56859    26424    3492
     Sum       23701   14245   3679              4547915  2113867  279083
 
     Using Slab Decomposition
 


     bravais-lattice index     =            0
     lattice parameter (alat)  =      26.2318  a.u.
     unit-cell volume          =   24087.9990 (a.u.)^3
     number of atoms/cell      =           48
     number of atomic types    =            3
     number of electrons       =       401.00
     number of Kohn-Sham states=          241
     kinetic-energy cutoff     =      75.0000  Ry
     charge density cutoff     =     500.0000  Ry
     scf convergence threshold =      1.0E-07
     mixing beta               =       0.7000
     number of iterations used =            8  local-TF  mixing
     Exchange-correlation= SLA  PW   PBX  PBC
                           (   1   4   3   4   0   0   0)

     celldm(1)=  26.231795  celldm(2)=   0.000000  celldm(3)=   0.000000
     celldm(4)=   0.000000  celldm(5)=   0.000000  celldm(6)=   0.000000

     crystal axes: (cart. coord. in units of alat)
               a(1) = (   1.000000   0.000000   0.000000 )  
               a(2) = (  -0.500000   0.866025   0.000000 )  
               a(3) = (   0.000000   0.000000   1.540941 )  

     reciprocal axes: (cart. coord. in units 2 pi/alat)
               b(1) = (  1.000000  0.577350  0.000000 )  
               b(2) = (  0.000000  1.154701  0.000000 )  
               b(3) = (  0.000000  0.000000  0.648954 )  


     PseudoPot. # 1 for Cr read from file:
     /ptmp/jojaibal/YSR_Project//Cr.pbe-spn-kjpaw_psl.1.0.0.UPF
     MD5 check sum: 7e2868eaf0e426e74b90ebb04087dc43
     Pseudo is Projector augmented-wave + core cor, Zval = 14.0
     Generated using &quot;atomic&quot; code by A. Dal Corso  v.6.3
     Shape of augmentation charge: PSQ
     Using radial grid of 1183 points,  6 beta functions with: 
                l(1) =   0
                l(2) =   0
                l(3) =   1
                l(4) =   1
                l(5) =   2
                l(6) =   2
     Q(r) pseudized with 0 coefficients 


     PseudoPot. # 2 for Nb read from file:
     /ptmp/jojaibal/YSR_Project//Nb.pbe-spn-kjpaw_psl.1.0.0.UPF
     MD5 check sum: dcedcbb129af9a7271e4748e5febedb1
     Pseudo is Projector augmented-wave + core cor, Zval = 13.0
     Generated using &quot;atomic&quot; code by A. Dal Corso  v.6.2.2
     Shape of augmentation charge: PSQ
     Using radial grid of 1227 points,  6 beta functions with: 
                l(1) =   0
                l(2) =   0
                l(3) =   1
                l(4) =   1
                l(5) =   2
                l(6) =   2
     Q(r) pseudized with 0 coefficients 


     PseudoPot. # 3 for Se read from file:
     /ptmp/jojaibal/YSR_Project//Se.pbe-n-kjpaw_psl.1.0.0.UPF
     MD5 check sum: 12232cb78b362a7b0fca8da9cb95fd5e
     Pseudo is Projector augmented-wave + core cor, Zval =  6.0
     Generated using &quot;atomic&quot; code by A. Dal Corso  v.6.3
     Shape of augmentation charge: PSQ
     Using radial grid of 1211 points,  4 beta functions with: 
                l(1) =   0
                l(2) =   0
                l(3) =   1
                l(4) =   1
     Q(r) pseudized with 0 coefficients 


     atomic species   valence    mass     pseudopotential
        Cr            14.00    51.99610     Cr( 1.00)
        Nb            13.00    92.90638     Nb( 1.00)
        Se             6.00    78.96000     Se( 1.00)

     Starting magnetic structure 
     atomic species   magnetization
        Cr           0.500
        Nb           0.000
        Se           0.000


     Simplified LDA+U calculation (l_max = 2) with parameters (eV):
     atomic species    L          U    alpha       J0     beta
        Cr             2     4.0000   0.0000   0.0000   0.0000



      6 Sym. Ops. (no inversion) found ( 4 have fractional translation)



   Cartesian axes

     site n.     atom                  positions (alat units)
         1           Cr  tau(   1) = (   0.2500000   0.4330127   0.1215913  )
         2           Nb  tau(   2) = (   0.0000128  -0.0000074   0.1218062  )
         3           Nb  tau(   3) = (   0.2500000  -0.0007549   0.1217413  )
         4           Nb  tau(   4) = (  -0.1284058   0.2145400   0.1217522  )
         5           Nb  tau(   5) = (   0.1237320   0.2158064   0.1216344  )
         6           Nb  tau(   6) = (   0.4999872  -0.0000074   0.1218062  )
         7           Nb  tau(   7) = (   0.3762680   0.2158064   0.1216344  )
         8           Nb  tau(   8) = (  -0.0012402   0.4322646   0.1216344  )
         9           Nb  tau(   9) = (  -0.2500000   0.4330274   0.1218062  )
        10           Nb  tau(  10) = (   0.7500000   0.0039327   0.1217522  )
        11           Nb  tau(  11) = (   0.6284058   0.2145400   0.1217522  )
        12           Nb  tau(  12) = (   0.5012402   0.4322646   0.1216344  )
        13           Nb  tau(  13) = (   0.3749722   0.6509672   0.1216344  )
        14           Nb  tau(  14) = (   0.1250278   0.6509672   0.1216344  )
        15           Nb  tau(  15) = (  -0.1256538   0.6498965   0.1217413  )
        16           Nb  tau(  16) = (  -0.3743462   0.6498965   0.1217413  )
        17           Se  tau(  17) = (   0.1254668   0.0719848   0.0004295  )
        18           Se  tau(  18) = (   0.1255069   0.0720745   0.2431494  )
        19           Se  tau(  19) = (   0.3745332   0.0719848   0.0004295  )
        20           Se  tau(  20) = (   0.3744931   0.0720745   0.2431494  )
        21           Se  tau(  21) = (  -0.0000729   0.2886330   0.0011671  )
        22           Se  tau(  22) = (  -0.0000193   0.2886640   0.2422397  )
        23           Se  tau(  23) = (   0.2500000   0.2931148   0.0048182  )
        24           Se  tau(  24) = (   0.2500000   0.2930663   0.2384757  )
        25           Se  tau(  25) = (   0.6245125   0.0718873  -0.0002504  )
        26           Se  tau(  26) = (   0.6245199   0.0718916   0.2439347  )
        27           Se  tau(  27) = (   0.5000729   0.2886330   0.0011671  )
        28           Se  tau(  28) = (   0.5000193   0.2886640   0.2422397  )
        29           Se  tau(  29) = (   0.3711551   0.5029617   0.0048182  )
        30           Se  tau(  30) = (   0.3711971   0.5029859   0.2384757  )
        31           Se  tau(  31) = (   0.1288449   0.5029617   0.0048182  )
        32           Se  tau(  32) = (   0.1288029   0.5029859   0.2384757  )
        33           Se  tau(  33) = (  -0.1249260   0.5056777   0.0004295  )
        34           Se  tau(  34) = (  -0.1248282   0.5056676   0.2431494  )
        35           Se  tau(  35) = (   0.8754875   0.0718873  -0.0002504  )
        36           Se  tau(  36) = (   0.8754801   0.0718916   0.2439347  )
        37           Se  tau(  37) = (   0.7500000   0.2892380  -0.0002504  )
        38           Se  tau(  38) = (   0.7500000   0.2892295   0.2439347  )
        39           Se  tau(  39) = (   0.6249260   0.5056777   0.0004295  )
        40           Se  tau(  40) = (   0.6248282   0.5056676   0.2431494  )
        41           Se  tau(  41) = (   0.5003928   0.7213756   0.0004295  )
        42           Se  tau(  42) = (   0.5003351   0.7212960   0.2431494  )
        43           Se  tau(  43) = (   0.2500000   0.7217721   0.0011671  )
        44           Se  tau(  44) = (   0.2500000   0.7217102   0.2422397  )
        45           Se  tau(  45) = (  -0.0003928   0.7213756   0.0004295  )
        46           Se  tau(  46) = (  -0.0003351   0.7212960   0.2431494  )
        47           Se  tau(  47) = (  -0.2500000   0.7216878  -0.0001321  )
        48           Se  tau(  48) = (  -0.2500000   0.7216878   0.2437618  )

     number of k points=     7  Methfessel-Paxton smearing, width (Ry)=  0.0200
                       cart. coord. in units 2pi/alat
        k(    1) = (   0.0000000   0.0000000   0.0000000), wk =   0.0277778
        k(    2) = (   0.0000000   0.1924501   0.0000000), wk =   0.1666667
        k(    3) = (   0.0000000   0.3849002   0.0000000), wk =   0.1666667
        k(    4) = (   0.0000000  -0.5773503   0.0000000), wk =   0.0833333
        k(    5) = (   0.1666667   0.2886751   0.0000000), wk =   0.1666667
        k(    6) = (   0.1666667   0.4811252   0.0000000), wk =   0.3333333
        k(    7) = (   0.3333333   0.5773503   0.0000000), wk =   0.0555556

     Dense  grid:  4547915 G-vectors     FFT dimensions: ( 192, 192, 288)

     Smooth grid:  2113867 G-vectors     FFT dimensions: ( 150, 150, 225)

     Estimated max dynamical RAM per process >     468.65 MB

     Estimated total dynamical RAM >      36.61 GB
     Generating pointlists ...
     new r_m :   0.0752 (alat units)  1.9718 (a.u.) for type    1
     new r_m :   0.0773 (alat units)  2.0285 (a.u.) for type    2
     new r_m :   0.0752 (alat units)  1.9718 (a.u.) for type    3

     Initial potential from superposition of free atoms

     starting charge  400.97717, renormalised to  401.00000

     negative rho (up, down):  5.003E-03 1.536E-03
     Number of +U iterations with fixed ns =  0
     Starting occupations:
 --- enter write_ns ---
 LDA+U parameters:
U( 1)     =  4.00000000
atom    1   Tr[ns(na)] (up, down, total) =   5.00000  0.00000  5.00000
   spin  1
    eigenvalues: 
  1.000  1.000  1.000  1.000  1.000
    eigenvectors:
  1.000  0.000  0.000  0.000  0.000
  0.000  1.000  0.000  0.000  0.000
  0.000  0.000  1.000  0.000  0.000
  0.000  0.000  0.000  1.000  0.000
  0.000  0.000  0.000  0.000  1.000
    occupations:
  1.000  0.000  0.000  0.000  0.000
  0.000  1.000  0.000  0.000  0.000
  0.000  0.000  1.000  0.000  0.000
  0.000  0.000  0.000  1.000  0.000
  0.000  0.000  0.000  0.000  1.000
   spin  2
    eigenvalues: 
  0.000  0.000  0.000  0.000  0.000
    eigenvectors:
  1.000  0.000  0.000  0.000  0.000
  0.000  1.000  0.000  0.000  0.000
  0.000  0.000  1.000  0.000  0.000
  0.000  0.000  0.000  1.000  0.000
  0.000  0.000  0.000  0.000  1.000
    occupations:
  0.000  0.000  0.000  0.000  0.000
  0.000  0.000  0.000  0.000  0.000
  0.000  0.000  0.000  0.000  0.000
  0.000  0.000  0.000  0.000  0.000
  0.000  0.000  0.000  0.000  0.000
atomic mag. moment =   5.00000
N of occupied +U levels =    5.000000
 --- exit write_ns ---
 Atomic wfc used for LDA+U Projector are NOT orthogonalized
     Starting wfcs are  333 randomized atomic wfcs
     Checking if some PAW data can be deallocated... 

     total cpu time spent up to now is       45.4 secs

     Self-consistent Calculation

     iteration #  1     ecut=    75.00 Ry     beta= 0.70
     Davidson diagonalization with overlap
     ethr =  1.00E-02,  avg # of iterations =  2.0
 --- enter write_ns ---
 LDA+U parameters:
U( 1)     =  4.00000000
atom    1   Tr[ns(na)] (up, down, total) =   4.80570  0.66174  5.46744
   spin  1
    eigenvalues: 
  0.927  0.927  0.981  0.981  0.988
    eigenvectors:
  0.000  0.000  0.000  0.000  1.000
  0.832  0.168  0.000  0.000  0.000
  0.168  0.832  0.000  0.000  0.000
  0.000  0.000  0.792  0.208  0.000
  0.000  0.000  0.208  0.792  0.000
    occupations:
  0.988  0.000  0.000  0.000  0.000
  0.000  0.927  0.000 -0.000  0.000
  0.000  0.000  0.927  0.000  0.000
  0.000 -0.000  0.000  0.981 -0.000
  0.000  0.000  0.000 -0.000  0.981
   spin  2
    eigenvalues: 
  0.062  0.088  0.088  0.212  0.212
    eigenvectors:
  1.000  0.000  0.000  0.000  0.000
  0.000  0.000  0.000  0.833  0.167
  0.000  0.000  0.000  0.167  0.833
  0.000  0.791  0.209  0.000  0.000
  0.000  0.209  0.791  0.000  0.000
    occupations:
  0.062  0.000  0.000  0.000  0.000
  0.000  0.212  0.000 -0.000  0.000
  0.000  0.000  0.212  0.000  0.000
  0.000 -0.000  0.000  0.088 -0.000
  0.000  0.000  0.000 -0.000  0.088
atomic mag. moment =   4.14397
N of occupied +U levels =    5.467438
 --- exit write_ns ---

     Threshold (ethr) on eigenvalues was too large:
     Diagonalizing with lowered threshold

     Davidson diagonalization with overlap
     ethr =  3.98E-04,  avg # of iterations =  2.6

     negative rho (up, down):  7.045E-05 1.964E-05

     total cpu time spent up to now is      154.2 secs

     total energy              =  -11323.37393469 Ry
     estimated scf accuracy    <       1.86955879 Ry

     total magnetization       =     2.86 Bohr mag/cell
     absolute magnetization    =     6.02 Bohr mag/cell

     iteration #  2     ecut=    75.00 Ry     beta= 0.70
     Davidson diagonalization with overlap
     ethr =  4.66E-04,  avg # of iterations =  1.5

     negative rho (up, down):  1.597E-06 2.435E-06

     total cpu time spent up to now is      202.9 secs

     total energy              =  -11323.36092717 Ry
     estimated scf accuracy    <       0.72754010 Ry

     total magnetization       =     2.61 Bohr mag/cell
     absolute magnetization    =     5.68 Bohr mag/cell

     iteration #  3     ecut=    75.00 Ry     beta= 0.70
     Davidson diagonalization with overlap
     ethr =  1.81E-04,  avg # of iterations =  2.5

     negative rho (up, down):  4.706E-07 1.391E-06

     total cpu time spent up to now is      255.3 secs

     total energy              =  -11323.36461260 Ry
     estimated scf accuracy    <       0.18327273 Ry

     total magnetization       =     2.55 Bohr mag/cell
     absolute magnetization    =     5.87 Bohr mag/cell

     iteration #  4     ecut=    75.00 Ry     beta= 0.70
     Davidson diagonalization with overlap
     ethr =  4.57E-05,  avg # of iterations =  4.0

     negative rho (up, down):  4.494E-07 7.665E-07

     total cpu time spent up to now is      317.7 secs

     total energy              =  -11323.38071972 Ry
     estimated scf accuracy    <       0.06044790 Ry

     total magnetization       =     2.42 Bohr mag/cell
     absolute magnetization    =     5.92 Bohr mag/cell

     iteration #  5     ecut=    75.00 Ry     beta= 0.70
     Davidson diagonalization with overlap
     ethr =  1.51E-05,  avg # of iterations =  3.1

     negative rho (up, down):  6.189E-07 5.687E-07

     total cpu time spent up to now is      369.4 secs

     total energy              =  -11323.37604740 Ry
     estimated scf accuracy    <       0.03423573 Ry

     total magnetization       =     2.35 Bohr mag/cell
     absolute magnetization    =     5.95 Bohr mag/cell

     iteration #  6     ecut=    75.00 Ry     beta= 0.70
     Davidson diagonalization with overlap
     ethr =  8.54E-06,  avg # of iterations =  4.5

     negative rho (up, down):  3.336E-07 2.712E-07

     total cpu time spent up to now is      424.3 secs

     total energy              =  -11323.37427029 Ry
     estimated scf accuracy    <       0.01759790 Ry

     total magnetization       =     2.17 Bohr mag/cell
     absolute magnetization    =     6.08 Bohr mag/cell

     iteration #  7     ecut=    75.00 Ry     beta= 0.70
     Davidson diagonalization with overlap
     c_bands:  1 eigenvalues not converged
     ethr =  4.39E-06,  avg # of iterations =  9.5

     negative rho (up, down):  3.223E-07 3.135E-07

     total cpu time spent up to now is      487.7 secs

     total energy              =  -11323.37345232 Ry
     estimated scf accuracy    <       0.01037441 Ry

     total magnetization       =     1.99 Bohr mag/cell
     absolute magnetization    =     6.27 Bohr mag/cell

     iteration #  8     ecut=    75.00 Ry     beta= 0.70
     Davidson diagonalization with overlap
     c_bands:  1 eigenvalues not converged
     ethr =  2.59E-06,  avg # of iterations =  7.6

     negative rho (up, down):  1.142E-02 1.127E-02

     total cpu time spent up to now is      547.2 secs

     total energy              =  -11323.37348599 Ry
     estimated scf accuracy    <       0.00558501 Ry

     total magnetization       =     1.67 Bohr mag/cell
     absolute magnetization    =     6.56 Bohr mag/cell

     iteration #  9     ecut=    75.00 Ry     beta= 0.70
     Davidson diagonalization with overlap
     ethr =  1.39E-06,  avg # of iterations =  2.6

     negative rho (up, down):  1.169E-02 1.163E-02

     total cpu time spent up to now is      599.7 secs

     total energy              =  -11323.37500274 Ry
     estimated scf accuracy    <       0.00155586 Ry

     total magnetization       =     1.09 Bohr mag/cell
     absolute magnetization    =     7.09 Bohr mag/cell

     iteration # 10     ecut=    75.00 Ry     beta= 0.70
     Davidson diagonalization with overlap
     c_bands:  1 eigenvalues not converged
     c_bands:  2 eigenvalues not converged
     ethr =  3.88E-07,  avg # of iterations =  6.0

     negative rho (up, down):  7.161E-03 7.153E-03

     total cpu time spent up to now is      663.1 secs

     total energy              =  -11323.37592321 Ry
     estimated scf accuracy    <       0.00028807 Ry

     total magnetization       =     0.64 Bohr mag/cell
     absolute magnetization    =     7.50 Bohr mag/cell

     iteration # 11     ecut=    75.00 Ry     beta= 0.70
     Davidson diagonalization with overlap
     c_bands:  1 eigenvalues not converged
     c_bands:  1 eigenvalues not converged
     ethr =  7.18E-08,  avg # of iterations =  9.7

     negative rho (up, down):  3.651E-03 3.687E-03

     total cpu time spent up to now is      735.4 secs

     total energy              =  -11323.37622710 Ry
     estimated scf accuracy    <       0.00006016 Ry

     total magnetization       =     0.45 Bohr mag/cell
     absolute magnetization    =     7.65 Bohr mag/cell

     iteration # 12     ecut=    75.00 Ry     beta= 0.70
     Davidson diagonalization with overlap
     c_bands:  1 eigenvalues not converged
     ethr =  1.50E-08,  avg # of iterations =  6.4

     negative rho (up, down):  3.323E-03 3.366E-03

     total cpu time spent up to now is      802.6 secs

     total energy              =  -11323.37629093 Ry
     estimated scf accuracy    <       0.00001033 Ry

     total magnetization       =     0.31 Bohr mag/cell
     absolute magnetization    =     7.74 Bohr mag/cell

     iteration # 13     ecut=    75.00 Ry     beta= 0.70
     Davidson diagonalization with overlap
     c_bands:  1 eigenvalues not converged
     ethr =  2.58E-09,  avg # of iterations =  6.9

     negative rho (up, down):  3.196E-03 3.240E-03

     total cpu time spent up to now is      874.5 secs

     total energy              =  -11323.37631068 Ry
     estimated scf accuracy    <       0.00000311 Ry

     total magnetization       =     0.24 Bohr mag/cell
     absolute magnetization    =     7.79 Bohr mag/cell

     iteration # 14     ecut=    75.00 Ry     beta= 0.70
     Davidson diagonalization with overlap
     ethr =  7.76E-10,  avg # of iterations =  5.2

     negative rho (up, down):  3.212E-03 3.256E-03

     total cpu time spent up to now is      956.6 secs

     total energy              =  -11323.37632979 Ry
     estimated scf accuracy    <       0.00000203 Ry

     total magnetization       =     0.15 Bohr mag/cell
     absolute magnetization    =     7.84 Bohr mag/cell

     iteration # 15     ecut=    75.00 Ry     beta= 0.70
     Davidson diagonalization with overlap
     ethr =  5.07E-10,  avg # of iterations =  4.1

     negative rho (up, down):  3.194E-03 3.238E-03

     total cpu time spent up to now is     1025.6 secs

     total energy              =  -11323.37633213 Ry
     estimated scf accuracy    <       0.00000173 Ry

     total magnetization       =     0.10 Bohr mag/cell
     absolute magnetization    =     7.87 Bohr mag/cell

     iteration # 16     ecut=    75.00 Ry     beta= 0.70
     Davidson diagonalization with overlap
     ethr =  4.31E-10,  avg # of iterations =  5.9

     negative rho (up, down):  3.236E-03 3.279E-03

     total cpu time spent up to now is     1121.6 secs

     total energy              =  -11323.37634965 Ry
     estimated scf accuracy    <       0.00000123 Ry

     total magnetization       =    -0.03 Bohr mag/cell
     absolute magnetization    =     7.94 Bohr mag/cell

     iteration # 17     ecut=    75.00 Ry     beta= 0.70
     Davidson diagonalization with overlap
     ethr =  3.07E-10,  avg # of iterations =  5.6

     negative rho (up, down):  3.179E-03 3.222E-03

     total cpu time spent up to now is     1221.4 secs

     total energy              =  -11323.37631935 Ry
     estimated scf accuracy    <       0.00000071 Ry

     total magnetization       =    -0.18 Bohr mag/cell
     absolute magnetization    =     8.03 Bohr mag/cell

     iteration # 18     ecut=    75.00 Ry     beta= 0.70
     Davidson diagonalization with overlap
     ethr =  1.78E-10,  avg # of iterations =  6.9

     negative rho (up, down):  3.237E-03 3.280E-03

     total cpu time spent up to now is     1340.7 secs

     total energy              =  -11323.37639750 Ry
     estimated scf accuracy    <       0.00000069 Ry

     total magnetization       =    -0.40 Bohr mag/cell
     absolute magnetization    =     8.18 Bohr mag/cell

     iteration # 19     ecut=    75.00 Ry     beta= 0.70
     Davidson diagonalization with overlap
     ethr =  1.72E-10,  avg # of iterations =  2.0

     negative rho (up, down):  3.260E-03 3.303E-03

     total cpu time spent up to now is     1395.5 secs

     total energy              =  -11323.37639308 Ry
     estimated scf accuracy    <       0.00000036 Ry

     total magnetization       =    -0.41 Bohr mag/cell
     absolute magnetization    =     8.19 Bohr mag/cell

     iteration # 20     ecut=    75.00 Ry     beta= 0.70
     Davidson diagonalization with overlap
     ethr =  8.88E-11,  avg # of iterations =  5.9

     negative rho (up, down):  3.278E-03 3.321E-03

     total cpu time spent up to now is     1494.7 secs

     total energy              =  -11323.37640068 Ry
     estimated scf accuracy    <       0.00000013 Ry

     total magnetization       =    -0.47 Bohr mag/cell
     absolute magnetization    =     8.24 Bohr mag/cell

     iteration # 21     ecut=    75.00 Ry     beta= 0.70
     Davidson diagonalization with overlap
     ethr =  3.20E-11,  avg # of iterations =  3.3

     negative rho (up, down):  3.311E-03 3.353E-03

     total cpu time spent up to now is     1554.3 secs

     total energy              =  -11323.37640099 Ry
     estimated scf accuracy    <       0.00000013 Ry

     total magnetization       =    -0.48 Bohr mag/cell
     absolute magnetization    =     8.24 Bohr mag/cell

     iteration # 22     ecut=    75.00 Ry     beta= 0.70
     Davidson diagonalization with overlap
     ethr =  3.20E-11,  avg # of iterations =  5.5

     negative rho (up, down):  3.289E-03 3.331E-03

     total cpu time spent up to now is     1635.4 secs

     total energy              =  -11323.37639926 Ry
     estimated scf accuracy    <       0.00000010 Ry

     total magnetization       =    -0.49 Bohr mag/cell
     absolute magnetization    =     8.25 Bohr mag/cell

     iteration # 23     ecut=    75.00 Ry     beta= 0.70
     Davidson diagonalization with overlap
     ethr =  2.50E-11,  avg # of iterations =  6.1

     negative rho (up, down):  3.192E-03 3.235E-03
 
     Magnetic moment per site  (integrated on atomic sphere of radius R)
     atom   1 (R=0.075)  charge= 12.1786  magn=  3.0884
     atom   2 (R=0.077)  charge= 10.0872  magn= -0.1866
     atom   3 (R=0.077)  charge= 10.0910  magn= -0.2428
     atom   4 (R=0.077)  charge= 10.0871  magn= -0.1467
     atom   5 (R=0.077)  charge= 10.0855  magn=  0.0151
     atom   6 (R=0.077)  charge= 10.0872  magn= -0.1866
     atom   7 (R=0.077)  charge= 10.0855  magn=  0.0151
     atom   8 (R=0.077)  charge= 10.0855  magn=  0.0151
     atom   9 (R=0.077)  charge= 10.0872  magn= -0.1866
     atom  10 (R=0.077)  charge= 10.0871  magn= -0.1467
     atom  11 (R=0.077)  charge= 10.0871  magn= -0.1467
     atom  12 (R=0.077)  charge= 10.0855  magn=  0.0151
     atom  13 (R=0.077)  charge= 10.0855  magn=  0.0151
     atom  14 (R=0.077)  charge= 10.0855  magn=  0.0151
     atom  15 (R=0.077)  charge= 10.0910  magn= -0.2428
     atom  16 (R=0.077)  charge= 10.0910  magn= -0.2428
     atom  17 (R=0.075)  charge=  3.8341  magn= -0.0084
     atom  18 (R=0.075)  charge=  3.8335  magn= -0.0084
     atom  19 (R=0.075)  charge=  3.8341  magn= -0.0084
     atom  20 (R=0.075)  charge=  3.8335  magn= -0.0084
     atom  21 (R=0.075)  charge=  3.8328  magn= -0.0004
     atom  22 (R=0.075)  charge=  3.8324  magn= -0.0004
     atom  23 (R=0.075)  charge=  3.8214  magn= -0.1164
     atom  24 (R=0.075)  charge=  3.8208  magn= -0.1166
     atom  25 (R=0.075)  charge=  3.8337  magn= -0.0008
     atom  26 (R=0.075)  charge=  3.8330  magn= -0.0007
     atom  27 (R=0.075)  charge=  3.8328  magn= -0.0004
     atom  28 (R=0.075)  charge=  3.8324  magn= -0.0004
     atom  29 (R=0.075)  charge=  3.8214  magn= -0.1164
     atom  30 (R=0.075)  charge=  3.8208  magn= -0.1166
     atom  31 (R=0.075)  charge=  3.8214  magn= -0.1164
     atom  32 (R=0.075)  charge=  3.8208  magn= -0.1166
     atom  33 (R=0.075)  charge=  3.8341  magn= -0.0084
     atom  34 (R=0.075)  charge=  3.8335  magn= -0.0084
     atom  35 (R=0.075)  charge=  3.8337  magn= -0.0008
     atom  36 (R=0.075)  charge=  3.8330  magn= -0.0007
     atom  37 (R=0.075)  charge=  3.8337  magn= -0.0008
     atom  38 (R=0.075)  charge=  3.8330  magn= -0.0007
     atom  39 (R=0.075)  charge=  3.8341  magn= -0.0084
     atom  40 (R=0.075)  charge=  3.8335  magn= -0.0084
     atom  41 (R=0.075)  charge=  3.8341  magn= -0.0084
     atom  42 (R=0.075)  charge=  3.8335  magn= -0.0084
     atom  43 (R=0.075)  charge=  3.8328  magn= -0.0004
     atom  44 (R=0.075)  charge=  3.8324  magn= -0.0004
     atom  45 (R=0.075)  charge=  3.8341  magn= -0.0084
     atom  46 (R=0.075)  charge=  3.8335  magn= -0.0084
     atom  47 (R=0.075)  charge=  3.8344  magn= -0.0037
     atom  48 (R=0.075)  charge=  3.8337  magn= -0.0036

     total cpu time spent up to now is     1733.1 secs

     End of self-consistent calculation
 --- enter write_ns ---
 LDA+U parameters:
U( 1)     =  4.00000000
atom    1   Tr[ns(na)] (up, down, total) =   4.35047  0.93917  5.28965
   spin  1
    eigenvalues: 
  0.767  0.767  0.929  0.929  0.959
    eigenvectors:
  0.000  0.000  0.000  0.000  1.000
  0.833  0.167  0.000  0.000  0.000
  0.167  0.833  0.000  0.000  0.000
  0.000  0.000  0.793  0.207  0.000
  0.000  0.000  0.207  0.793  0.000
    occupations:
  0.959  0.000  0.000  0.000  0.000
  0.000  0.767  0.000 -0.000 -0.000
  0.000  0.000  0.767 -0.000  0.000
  0.000 -0.000 -0.000  0.929 -0.000
  0.000 -0.000  0.000 -0.000  0.929
   spin  2
    eigenvalues: 
  0.072  0.108  0.108  0.325  0.325
    eigenvectors:
  1.000  0.000  0.000  0.000  0.000
  0.000  0.000  0.000  0.833  0.167
  0.000  0.000  0.000  0.167  0.833
  0.000  0.790  0.210  0.000  0.000
  0.000  0.210  0.790  0.000  0.000
    occupations:
  0.072  0.000  0.000  0.000  0.000
  0.000  0.325  0.000 -0.000  0.000
  0.000  0.000  0.325  0.000 -0.000
  0.000 -0.000  0.000  0.108 -0.000
  0.000  0.000 -0.000 -0.000  0.108
atomic mag. moment =   3.41130
N of occupied +U levels =    5.289645
 --- exit write_ns ---

 ------ SPIN UP ------------


          k = 0.0000 0.0000 0.0000 (264153 PWs)   bands (ev):

   -73.6873 -56.3654 -56.3622 -56.3622 -56.3583 -56.3583 -56.3548 -56.1650
   -56.1631 -56.1631 -56.1465 -56.1367 -56.1367 -56.1339 -56.1265 -56.1265
   -45.0726 -45.0726 -45.0113 -32.5583 -32.5545 -32.5545 -32.4941 -32.4921
   -32.4921 -32.4699 -32.4499 -32.4499 -32.4323 -32.4254 -32.4254 -32.4124
   -32.4124 -32.4054 -32.3830 -32.3830 -32.3630 -32.3541 -32.3541 -32.3003
   -32.2750 -32.2580 -32.2580 -32.2520 -32.2423 -32.2423 -32.2303 -32.2249
   -32.2204 -32.2122 -32.2122 -32.2018 -32.1898 -32.1898 -32.1842 -32.1800
   -32.1800 -32.1718 -32.1718 -32.1463 -32.1385 -32.1385 -32.1193 -32.1193
   -14.7879 -14.2495 -14.1727 -14.1727 -14.1455 -14.1455 -14.1443 -13.8167
   -13.5735 -13.5406 -13.5406 -13.5368 -13.4995 -13.4995 -13.4945 -13.4945
   -13.4697 -13.4306 -13.4306 -13.4133 -13.4013 -13.4013 -13.3959 -13.2135
   -13.2135 -13.2004 -13.2004 -13.1995 -13.1961 -13.1813 -13.1005 -13.1005
    -6.3058  -6.2441  -6.2441  -6.1549  -5.7749  -5.6860  -5.6860  -5.5556
    -5.5209  -5.5209  -5.4960  -5.4059  -5.4059  -5.3473  -5.3473  -5.3425
    -5.3405  -5.3405  -5.3123  -5.2262  -5.2262  -5.1956  -5.1905  -5.1905
    -5.1789  -4.8085  -4.8085  -4.6999  -4.6587  -4.6002  -4.6002  -4.5425
    -4.5163  -4.5163  -4.4667  -4.4585  -4.4585  -4.4239  -4.4195  -4.4195
    -4.1997  -4.1997  -4.1243  -4.0494  -3.9990  -3.9990  -3.8972  -3.8802
    -3.8793  -3.8793  -3.7930  -3.7930  -3.7563  -3.7285  -3.7285  -3.6350
    -3.6350  -3.5903  -3.5686  -3.5686  -3.5330  -3.4434  -3.4434  -3.1876
    -3.1876  -3.0175  -2.9684  -2.9079  -2.9062  -2.9062  -2.7708  -2.7708
    -2.6547  -2.6547  -2.6248  -2.5878  -2.5511  -2.5076  -2.5076  -2.4993
    -2.4964  -2.4964  -2.4730  -2.4689  -2.4689  -2.3649  -2.3017  -2.2750
    -2.2750  -2.2230  -2.2211  -2.2211  -2.0976  -2.0976  -2.0346  -2.0346
    -1.9240  -1.8959  -1.8959  -1.3528  -1.3528  -1.3197  -1.2338  -1.2131
    -1.2131  -1.1861  -1.1861  -1.1212  -1.0421  -0.9937  -0.9937  -0.6382
    -0.1517  -0.1517  -0.0694   0.2573   0.2573   1.1111   1.1797   1.1797
     1.2188   1.2504   1.2533   1.2533   1.2958   1.3005   1.3005   1.3400
     1.3400   1.3707   1.3707   1.4041   1.4474   1.4995   1.4995   1.5997
     1.5997   1.6255   1.6595   1.7178   1.7235   1.7235   1.7406   1.7406
     1.7987

          k = 0.0000 0.1925 0.0000 (264181 PWs)   bands (ev):

   -73.6873 -56.3654 -56.3622 -56.3622 -56.3582 -56.3582 -56.3548 -56.1649
   -56.1632 -56.1631 -56.1464 -56.1367 -56.1367 -56.1339 -56.1265 -56.1265
   -45.0726 -45.0726 -45.0113 -32.5596 -32.5542 -32.5523 -32.4987 -32.4926
   -32.4875 -32.4702 -32.4495 -32.4491 -32.4322 -32.4255 -32.4254 -32.4124
   -32.4123 -32.4055 -32.3855 -32.3848 -32.3692 -32.3518 -32.3463 -32.2991
   -32.2754 -32.2691 -32.2601 -32.2503 -32.2425 -32.2400 -32.2245 -32.2219
   -32.2177 -32.2135 -32.2122 -32.2004 -32.1903 -32.1897 -32.1850 -32.1800
   -32.1797 -32.1717 -32.1717 -32.1467 -32.1398 -32.1387 -32.1201 -32.1193
   -14.7689 -14.3528 -14.2530 -14.2339 -14.0876 -14.0600 -13.9853 -13.8078
   -13.6151 -13.5822 -13.5787 -13.5587 -13.5576 -13.4926 -13.4708 -13.4637
   -13.4634 -13.4496 -13.4464 -13.4068 -13.4044 -13.3465 -13.3379 -13.2493
   -13.2449 -13.2091 -13.2044 -13.1986 -13.1849 -13.1639 -13.0933 -13.0910
    -6.2833  -6.2139  -6.2059  -6.1299  -5.7795  -5.7080  -5.6870  -5.6063
    -5.5346  -5.5222  -5.4911  -5.4477  -5.4257  -5.4199  -5.4094  -5.3985
    -5.3455  -5.3355  -5.3004  -5.2744  -5.2419  -5.2084  -5.2061  -5.0109
    -5.0066  -4.8224  -4.8015  -4.7483  -4.6905  -4.6567  -4.6445  -4.5294
    -4.5136  -4.5092  -4.4811  -4.4583  -4.4231  -4.4133  -4.4030  -4.3932
    -4.2867  -4.2686  -4.2227  -4.0667  -3.9626  -3.9560  -3.8989  -3.8595
    -3.8357  -3.8335  -3.7901  -3.7882  -3.7267  -3.7049  -3.6841  -3.6314
    -3.6287  -3.5874  -3.5460  -3.4866  -3.4103  -3.3641  -3.2748  -3.2561
    -3.2542  -3.1162  -3.0272  -2.9786  -2.9509  -2.8168  -2.7912  -2.7790
    -2.6906  -2.6691  -2.6536  -2.6368  -2.6119  -2.6112  -2.5615  -2.5257
    -2.5073  -2.4843  -2.4696  -2.3949  -2.3793  -2.3674  -2.3229  -2.2708
    -2.2450  -2.1502  -2.1319  -2.1206  -2.1063  -2.1033  -2.0940  -2.0486
    -2.0262  -1.9634  -1.8777  -1.3911  -1.3513  -1.3410  -1.2754  -1.2533
    -1.2013  -1.1303  -1.1254  -1.0593  -1.0328  -0.9703  -0.9326  -0.6427
    -0.1543  -0.1414  -0.0714   0.2340   0.2562   1.0628   1.1431   1.1622
     1.1878   1.2200   1.2234   1.2524   1.2622   1.2785   1.3194   1.3405
     1.3512   1.3850   1.3908   1.4242   1.4515   1.4989   1.5211   1.5345
     1.5653   1.5975   1.6201   1.6559   1.6602   1.7227   1.7537   1.7746
     1.8269

          k = 0.0000 0.3849 0.0000 (264198 PWs)   bands (ev):

   -73.6873 -56.3654 -56.3623 -56.3622 -56.3582 -56.3582 -56.3549 -56.1647
   -56.1635 -56.1631 -56.1464 -56.1368 -56.1367 -56.1339 -56.1265 -56.1265
   -45.0726 -45.0726 -45.0113 -32.5610 -32.5537 -32.5493 -32.5026 -32.4938
   -32.4834 -32.4709 -32.4485 -32.4473 -32.4320 -32.4258 -32.4255 -32.4123
   -32.4121 -32.4056 -32.3899 -32.3896 -32.3737 -32.3473 -32.3376 -32.2968
   -32.2822 -32.2766 -32.2638 -32.2500 -32.2427 -32.2378 -32.2235 -32.2159
   -32.2130 -32.2122 -32.2080 -32.1978 -32.1918 -32.1897 -32.1868 -32.1801
   -32.1792 -32.1717 -32.1717 -32.1477 -32.1429 -32.1393 -32.1218 -32.1195
   -14.7133 -14.4936 -14.3026 -14.2791 -13.9705 -13.9434 -13.8155 -13.7816
   -13.7048 -13.6817 -13.6812 -13.6021 -13.5765 -13.5335 -13.4665 -13.4594
   -13.4414 -13.4208 -13.4070 -13.4050 -13.3745 -13.3020 -13.2998 -13.2936
   -13.2820 -13.2395 -13.2046 -13.1983 -13.1817 -13.1537 -13.0798 -13.0747
    -6.2325  -6.1322  -6.1019  -6.0557  -5.8070  -5.7921  -5.7435  -5.7192
    -5.5546  -5.5433  -5.5141  -5.5044  -5.5007  -5.4695  -5.4579  -5.4281
    -5.3617  -5.3596  -5.2908  -5.2812  -5.2361  -5.2101  -5.1124  -4.8718
    -4.7960  -4.7931  -4.7793  -4.7390  -4.7132  -4.7032  -4.6622  -4.6571
    -4.5852  -4.5811  -4.5204  -4.5049  -4.4645  -4.4330  -4.3978  -4.3787
    -4.3752  -4.3557  -4.0602  -4.0562  -4.0392  -3.9902  -3.9179  -3.8512
    -3.7567  -3.7495  -3.7151  -3.7063  -3.6770  -3.6375  -3.6335  -3.5545
    -3.5504  -3.4848  -3.4798  -3.4360  -3.4042  -3.4038  -3.3216  -3.1869
    -3.1247  -3.1095  -3.1082  -2.9640  -2.9464  -2.8798  -2.8333  -2.7970
    -2.7680  -2.7462  -2.6815  -2.6557  -2.6368  -2.5993  -2.5952  -2.5537
    -2.5344  -2.5144  -2.4943  -2.4803  -2.4081  -2.3888  -2.3060  -2.2900
    -2.2816  -2.2348  -2.2029  -2.1777  -2.0723  -2.0372  -2.0237  -1.9804
    -1.9598  -1.9343  -1.8855  -1.4567  -1.4087  -1.3499  -1.2858  -1.2647
    -1.1612  -1.0890  -1.0867  -1.0378  -0.9484  -0.8657  -0.8573  -0.6615
    -0.1581  -0.1158  -0.0794   0.1856   0.2542   0.9646   1.0784   1.1119
     1.1185   1.1527   1.2135   1.2268   1.2400   1.2614   1.3145   1.3625
     1.3832   1.3903   1.4230   1.4345   1.4382   1.4936   1.5086   1.5189
     1.5373   1.5398   1.5490   1.6351   1.6395   1.6717   1.6932   1.7360
     1.7381

          k = 0.0000-0.5774 0.0000 (264178 PWs)   bands (ev):

   -73.6873 -56.3653 -56.3623 -56.3623 -56.3582 -56.3582 -56.3549 -56.1645
   -56.1637 -56.1631 -56.1463 -56.1368 -56.1367 -56.1339 -56.1265 -56.1265
   -45.0726 -45.0726 -45.0113 -32.5615 -32.5535 -32.5479 -32.5041 -32.4944
   -32.4819 -32.4712 -32.4479 -32.4462 -32.4319 -32.4259 -32.4256 -32.4123
   -32.4119 -32.4057 -32.3923 -32.3921 -32.3748 -32.3449 -32.3340 -32.2958
   -32.2877 -32.2775 -32.2652 -32.2500 -32.2427 -32.2369 -32.2227 -32.2172
   -32.2122 -32.2109 -32.2010 -32.1965 -32.1934 -32.1897 -32.1878 -32.1801
   -32.1790 -32.1717 -32.1717 -32.1482 -32.1449 -32.1395 -32.1226 -32.1195
   -14.6436 -14.5935 -14.3188 -14.2945 -13.8522 -13.8271 -13.8172 -13.8115
   -13.7454 -13.7315 -13.6682 -13.6504 -13.6089 -13.5830 -13.4666 -13.4591
   -13.4073 -13.4053 -13.4012 -13.3751 -13.3577 -13.3475 -13.3082 -13.2771
   -13.2743 -13.2625 -13.2046 -13.1982 -13.1814 -13.1513 -13.0737 -13.0677
    -6.2025  -6.0609  -6.0109  -5.9700  -5.8727  -5.8716  -5.8197  -5.7901
    -5.5821  -5.5500  -5.5481  -5.5342  -5.5065  -5.4784  -5.4409  -5.4042
    -5.3894  -5.3827  -5.2853  -5.2817  -5.2419  -5.2121  -4.9451  -4.9011
    -4.8828  -4.7764  -4.7400  -4.7033  -4.7008  -4.6496  -4.6458  -4.6409
    -4.6139  -4.5811  -4.5434  -4.5279  -4.5100  -4.5100  -4.4872  -4.4585
    -4.3588  -4.3185  -4.0722  -4.0511  -4.0244  -3.9460  -3.8987  -3.8323
    -3.6833  -3.6712  -3.6676  -3.6543  -3.6466  -3.6300  -3.6116  -3.5967
    -3.5809  -3.5374  -3.5070  -3.4369  -3.4041  -3.3947  -3.2602  -3.1879
    -3.1361  -3.0631  -3.0513  -2.8945  -2.8364  -2.8146  -2.8103  -2.7834
    -2.7815  -2.7452  -2.7067  -2.7017  -2.6460  -2.6321  -2.6300  -2.6283
    -2.6180  -2.5837  -2.5581  -2.5310  -2.5035  -2.4589  -2.3459  -2.3059
    -2.2386  -2.2171  -2.1872  -2.1798  -2.0841  -2.0702  -1.9847  -1.9294
    -1.9080  -1.8907  -1.8655  -1.4755  -1.4386  -1.3551  -1.2933  -1.2691
    -1.1408  -1.0764  -1.0696  -1.0225  -0.9260  -0.8264  -0.7871  -0.6880
    -0.1587  -0.0997  -0.0862   0.1603   0.2533   0.9144   1.0466   1.0788
     1.1016   1.1102   1.1922   1.2258   1.2399   1.2545   1.3622   1.3748
     1.3821   1.3927   1.4018   1.4332   1.4413   1.4694   1.4855   1.5095
     1.5186   1.5219   1.5597   1.5791   1.6257   1.6770   1.6852   1.7222
     1.7281

          k = 0.1667 0.2887 0.0000 (264148 PWs)   bands (ev):

   -73.6873 -56.3654 -56.3623 -56.3622 -56.3582 -56.3582 -56.3548 -56.1648
   -56.1634 -56.1631 -56.1464 -56.1368 -56.1367 -56.1339 -56.1265 -56.1265
   -45.0726 -45.0726 -45.0113 -32.5607 -32.5540 -32.5499 -32.5019 -32.4932
   -32.4846 -32.4706 -32.4488 -32.4477 -32.4321 -32.4257 -32.4255 -32.4123
   -32.4122 -32.4056 -32.3903 -32.3862 -32.3738 -32.3481 -32.3396 -32.2974
   -32.2801 -32.2748 -32.2624 -32.2542 -32.2413 -32.2357 -32.2238 -32.2161
   -32.2153 -32.2122 -32.2105 -32.1985 -32.1912 -32.1898 -32.1863 -32.1801
   -32.1793 -32.1717 -32.1717 -32.1474 -32.1419 -32.1393 -32.1212 -32.1196
   -14.7315 -14.4297 -14.3840 -14.1382 -14.1179 -13.9149 -13.8753 -13.7903
   -13.7015 -13.6481 -13.6370 -13.5703 -13.5444 -13.5290 -13.4935 -13.4812
   -13.4778 -13.4105 -13.4073 -13.4033 -13.3544 -13.3380 -13.3033 -13.2816
   -13.2550 -13.2341 -13.2219 -13.1975 -13.1777 -13.1524 -13.0865 -13.0757
    -6.2463  -6.1555  -6.1360  -6.0803  -5.7891  -5.7408  -5.7170  -5.6726
    -5.6106  -5.5657  -5.5348  -5.5183  -5.4522  -5.4462  -5.4335  -5.3800
    -5.3705  -5.3509  -5.3202  -5.3060  -5.2061  -5.1810  -5.0683  -5.0115
    -4.8543  -4.7936  -4.7669  -4.7494  -4.7100  -4.6609  -4.6483  -4.5774
    -4.5552  -4.5454  -4.5331  -4.5188  -4.5121  -4.5003  -4.4412  -4.4230
    -4.2374  -4.1845  -4.1493  -4.1284  -4.0956  -3.9569  -3.8749  -3.8410
    -3.7810  -3.7537  -3.7009  -3.6977  -3.6637  -3.6443  -3.6270  -3.6004
    -3.5687  -3.5439  -3.5397  -3.4169  -3.3799  -3.3632  -3.3516  -3.2646
    -3.2498  -3.1187  -3.0346  -2.9350  -2.9042  -2.8690  -2.8342  -2.7790
    -2.7625  -2.7526  -2.6648  -2.6482  -2.6318  -2.6201  -2.5997  -2.5945
    -2.5368  -2.4521  -2.4512  -2.4196  -2.4005  -2.3840  -2.3483  -2.3134
    -2.2374  -2.2135  -2.1476  -2.1357  -2.0847  -2.0737  -2.0170  -2.0044
    -1.9882  -1.9762  -1.9104  -1.4247  -1.3805  -1.3488  -1.2926  -1.2597
    -1.1907  -1.1494  -1.0410  -1.0244  -0.9610  -0.9262  -0.8630  -0.6544
    -0.1528  -0.1303  -0.0740   0.1989   0.2537   0.9751   1.0968   1.1243
     1.1451   1.1845   1.2182   1.2340   1.2383   1.2587   1.3277   1.3391
     1.3659   1.4016   1.4257   1.4400   1.4434   1.4697   1.5149   1.5275
     1.5349   1.5498   1.6017   1.6187   1.6365   1.7080   1.7258   1.7627
     1.7870

          k = 0.1667 0.4811 0.0000 (264220 PWs)   bands (ev):

   -73.6873 -56.3653 -56.3623 -56.3623 -56.3582 -56.3582 -56.3549 -56.1645
   -56.1637 -56.1631 -56.1463 -56.1368 -56.1367 -56.1339 -56.1265 -56.1265
   -45.0726 -45.0726 -45.0113 -32.5613 -32.5539 -32.5477 -32.5042 -32.4938
   -32.4829 -32.4708 -32.4479 -32.4462 -32.4319 -32.4259 -32.4256 -32.4122
   -32.4120 -32.4057 -32.3947 -32.3880 -32.3770 -32.3440 -32.3342 -32.2957
   -32.2879 -32.2752 -32.2654 -32.2574 -32.2400 -32.2325 -32.2227 -32.2172
   -32.2126 -32.2122 -32.2014 -32.1965 -32.1928 -32.1901 -32.1878 -32.1801
   -32.1790 -32.1717 -32.1717 -32.1482 -32.1444 -32.1400 -32.1220 -32.1200
   -14.6612 -14.5433 -14.4347 -14.1562 -13.9928 -13.8470 -13.7916 -13.7564
   -13.7237 -13.7050 -13.6728 -13.6566 -13.5827 -13.5459 -13.5277 -13.4998
   -13.4484 -13.3963 -13.3816 -13.3520 -13.3511 -13.3277 -13.3034 -13.2952
   -13.2613 -13.2491 -13.2367 -13.2054 -13.1708 -13.1460 -13.0791 -13.0634
    -6.2032  -6.0651  -6.0282  -5.9886  -5.8329  -5.8075  -5.7783  -5.7654
    -5.6484  -5.6396  -5.6213  -5.5770  -5.5601  -5.4819  -5.3933  -5.3701
    -5.3668  -5.3265  -5.3100  -5.2678  -5.1525  -5.0925  -5.0297  -4.8717
    -4.8626  -4.8017  -4.7956  -4.7360  -4.7086  -4.6933  -4.6886  -4.6502
    -4.6241  -4.5947  -4.5382  -4.5319  -4.5209  -4.4966  -4.4885  -4.4630
    -4.2962  -4.2657  -4.1206  -4.0752  -3.9721  -3.9135  -3.8475  -3.8039
    -3.7178  -3.7075  -3.6786  -3.6521  -3.6417  -3.6283  -3.5981  -3.5755
    -3.5438  -3.5050  -3.4582  -3.4577  -3.4251  -3.3972  -3.3407  -3.2939
    -3.1638  -3.0709  -3.0226  -2.9159  -2.8551  -2.8418  -2.8204  -2.7936
    -2.7336  -2.7289  -2.7196  -2.6834  -2.6826  -2.6571  -2.6041  -2.5689
    -2.5557  -2.5536  -2.5044  -2.4999  -2.4666  -2.4022  -2.3984  -2.3323
    -2.3283  -2.3165  -2.1762  -2.1301  -2.0677  -2.0642  -1.9664  -1.9426
    -1.9383  -1.9065  -1.8756  -1.4388  -1.3972  -1.3591  -1.3046  -1.2766
    -1.2095  -1.1102  -1.0147  -0.9842  -0.9236  -0.8511  -0.7835  -0.6840
    -0.1520  -0.1203  -0.0726   0.1626   0.2509   0.8869   1.0346   1.0670
     1.1289   1.1478   1.1926   1.2218   1.2590   1.2928   1.3321   1.3441
     1.3713   1.3775   1.4134   1.4402   1.4486   1.4538   1.4880   1.5223
     1.5304   1.5341   1.5567   1.5709   1.6293   1.6648   1.6654   1.6922
     1.7220

          k = 0.3333 0.5774 0.0000 (264198 PWs)   bands (ev):

   -73.6873 -56.3653 -56.3623 -56.3623 -56.3582 -56.3582 -56.3549 -56.1644
   -56.1638 -56.1631 -56.1463 -56.1368 -56.1367 -56.1339 -56.1265 -56.1265
   -45.0726 -45.0726 -45.0113 -32.5614 -32.5541 -32.5468 -32.5050 -32.4935
   -32.4833 -32.4704 -32.4476 -32.4456 -32.4319 -32.4258 -32.4258 -32.4121
   -32.4120 -32.4058 -32.3967 -32.3861 -32.3804 -32.3420 -32.3326 -32.2951
   -32.2904 -32.2716 -32.2692 -32.2615 -32.2392 -32.2281 -32.2222 -32.2180
   -32.2129 -32.2122 -32.1981 -32.1957 -32.1932 -32.1911 -32.1883 -32.1802
   -32.1789 -32.1717 -32.1716 -32.1484 -32.1449 -32.1407 -32.1214 -32.1209
   -14.6085 -14.5426 -14.5360 -14.0224 -14.0011 -13.9902 -13.7246 -13.7131
   -13.7020 -13.6610 -13.6604 -13.6462 -13.6126 -13.6124 -13.6045 -13.4794
   -13.4585 -13.4209 -13.3742 -13.3274 -13.3171 -13.3049 -13.2978 -13.2961
   -13.2838 -13.2675 -13.2360 -13.2227 -13.1601 -13.1439 -13.0790 -13.0581
    -6.1875  -6.0119  -5.9921  -5.9396  -5.7985  -5.7863  -5.7724  -5.7463
    -5.7397  -5.7207  -5.7113  -5.7063  -5.6014  -5.4688  -5.3828  -5.3748
    -5.3573  -5.3361  -5.2729  -5.1420  -5.0155  -4.9887  -4.9425  -4.9226
    -4.9075  -4.8975  -4.8626  -4.8095  -4.7658  -4.6935  -4.6913  -4.6834
    -4.6261  -4.6070  -4.6010  -4.5811  -4.5492  -4.4989  -4.4780  -4.3402
    -4.2516  -4.2279  -4.1752  -4.0212  -3.9221  -3.9157  -3.8699  -3.8129
    -3.6880  -3.6681  -3.6545  -3.6545  -3.5986  -3.5939  -3.5930  -3.5763
    -3.5461  -3.5457  -3.5205  -3.5153  -3.3512  -3.3261  -3.2406  -3.2015
    -3.1852  -3.1818  -3.1305  -3.0801  -2.8769  -2.8124  -2.7954  -2.7640
    -2.7598  -2.7070  -2.6986  -2.6369  -2.6043  -2.5999  -2.5757  -2.5663
    -2.5351  -2.4996  -2.4894  -2.4621  -2.4476  -2.4464  -2.4414  -2.4377
    -2.4280  -2.3986  -2.3136  -2.0897  -2.0305  -2.0290  -1.9946  -1.9795
    -1.8953  -1.8787  -1.8521  -1.3881  -1.3846  -1.3604  -1.3029  -1.2998
    -1.2763  -1.1007  -1.0026  -0.9297  -0.9231  -0.8394  -0.7345  -0.7150
    -0.1502  -0.1243  -0.0659   0.1521   0.2479   0.8422   1.0030   1.0421
     1.1325   1.1577   1.2126   1.2134   1.3073   1.3214   1.3355   1.3460
     1.3471   1.3609   1.3697   1.4136   1.4483   1.4612   1.4758   1.4963
     1.5245   1.5463   1.5597   1.5889   1.5923   1.6357   1.6536   1.6698
     1.6893

 ------ SPIN DOWN ----------


          k = 0.0000 0.0000 0.0000 (264153 PWs)   bands (ev):

   -70.3753 -56.3531 -56.3507 -56.3507 -56.3452 -56.3452 -56.3430 -56.3216
   -56.3127 -56.3127 -56.3041 -56.3041 -56.3039 -56.2587 -56.2481 -56.2481
   -41.9519 -41.7022 -41.7022 -32.5657 -32.5657 -32.5514 -32.5229 -32.5150
   -32.5150 -32.4935 -32.4935 -32.4867 -32.4564 -32.4472 -32.4472 -32.4433
   -32.4372 -32.4372 -32.4256 -32.4161 -32.4143 -32.4143 -32.4032 -32.4032
   -32.3977 -32.3977 -32.3931 -32.3892 -32.3883 -32.3682 -32.3682 -32.3679
   -32.3679 -32.3679 -32.3591 -32.3574 -32.3574 -32.3535 -32.3535 -32.3347
   -32.3320 -32.3306 -32.3306 -32.3245 -32.3135 -32.3135 -32.2490 -32.2490
   -14.8262 -14.3128 -14.2018 -14.2018 -14.1606 -14.1606 -14.1588 -13.8653
   -13.6532 -13.5470 -13.5470 -13.5454 -13.5409 -13.5409 -13.5140 -13.5140
   -13.4856 -13.4370 -13.4370 -13.4271 -13.4116 -13.4116 -13.4064 -13.2183
   -13.2183 -13.2165 -13.2093 -13.2093 -13.2072 -13.1945 -13.1445 -13.1445
    -6.2285  -6.2065  -6.2065  -6.0636  -5.5983  -5.5745  -5.5745  -5.5204
    -5.5204  -5.5199  -5.4076  -5.3875  -5.3875  -5.3555  -5.3456  -5.3456
    -5.3295  -5.2699  -5.2699  -5.2415  -5.2415  -5.2254  -5.1985  -5.0963
    -5.0963  -4.6796  -4.6696  -4.6696  -4.6096  -4.5758  -4.5758  -4.5389
    -4.5237  -4.5237  -4.5043  -4.4648  -4.4648  -4.4620  -4.3640  -4.3640
    -4.1481  -4.0827  -4.0667  -4.0667  -3.9721  -3.9721  -3.9326  -3.8260
    -3.8260  -3.7941  -3.7370  -3.7370  -3.7274  -3.7274  -3.6267  -3.6187
    -3.6187  -3.5664  -3.5609  -3.5032  -3.5032  -3.0321  -3.0192  -3.0192
    -2.9602  -2.9495  -2.9495  -2.8379  -2.8379  -2.6606  -2.6606  -2.6483
    -2.6147  -2.5984  -2.5468  -2.5277  -2.5277  -2.5233  -2.5233  -2.5036
    -2.4122  -2.3754  -2.3754  -2.3664  -2.3664  -2.3320  -2.2968  -2.2968
    -2.2944  -2.1787  -2.1787  -1.9946  -1.9946  -1.9624  -1.9322  -1.9322
    -1.5191  -1.5191  -1.5041  -1.4115  -1.4023  -1.4023  -1.3764  -1.3119
    -1.3119  -1.1890  -1.1890  -1.1303  -0.8245  -0.6993  -0.6993  -0.4090
     1.0705   1.0705   1.0935   1.1203   1.1340   1.1340   1.1409   1.1409
     1.1415   1.2295   1.2295   1.2326   1.2547   1.2547   1.2902   1.3551
     1.3551   1.3733   1.4979   1.4979   1.5105   1.5873   1.6198   1.6198
     1.6199   1.6713   1.6713   1.6732   1.6739   1.6913   1.6913   1.7266
     1.7266

          k = 0.0000 0.1925 0.0000 (264181 PWs)   bands (ev):

   -70.3753 -56.3530 -56.3508 -56.3507 -56.3452 -56.3451 -56.3431 -56.3216
   -56.3127 -56.3127 -56.3042 -56.3041 -56.3037 -56.2587 -56.2481 -56.2481
   -41.9519 -41.7022 -41.7022 -32.5637 -32.5637 -32.5491 -32.5278 -32.5159
   -32.5127 -32.4977 -32.4926 -32.4845 -32.4666 -32.4573 -32.4504 -32.4387
   -32.4359 -32.4251 -32.4237 -32.4159 -32.4152 -32.4146 -32.4033 -32.4026
   -32.3994 -32.3968 -32.3935 -32.3886 -32.3849 -32.3710 -32.3682 -32.3679
   -32.3670 -32.3611 -32.3590 -32.3579 -32.3569 -32.3535 -32.3533 -32.3360
   -32.3330 -32.3321 -32.3312 -32.3245 -32.3135 -32.3135 -32.2501 -32.2492
   -14.8077 -14.3972 -14.2783 -14.2581 -14.1214 -14.0799 -14.0031 -13.8578
   -13.6723 -13.6143 -13.6013 -13.5857 -13.5670 -13.5089 -13.4921 -13.4829
   -13.4821 -13.4618 -13.4613 -13.4172 -13.4145 -13.3599 -13.3487 -13.2600
   -13.2537 -13.2227 -13.2132 -13.2083 -13.1981 -13.1784 -13.1322 -13.1297
    -6.1953  -6.1724  -6.1629  -6.0375  -5.6473  -5.5911  -5.5761  -5.5505
    -5.5231  -5.5033  -5.4988  -5.4214  -5.4058  -5.3909  -5.3773  -5.3493
    -5.3284  -5.3200  -5.3168  -5.2529  -5.2404  -5.2245  -5.1521  -4.9989
    -4.9352  -4.7703  -4.7289  -4.7288  -4.6027  -4.5880  -4.5760  -4.5572
    -4.5287  -4.4838  -4.4816  -4.4668  -4.4474  -4.4065  -4.3648  -4.3321
    -4.2469  -4.2332  -4.1668  -3.9644  -3.9088  -3.8791  -3.8785  -3.8763
    -3.8298  -3.8190  -3.7648  -3.7434  -3.7187  -3.6957  -3.6282  -3.5406
    -3.5158  -3.4988  -3.4925  -3.3305  -3.3023  -3.1665  -3.1121  -3.0849
    -3.0746  -3.0013  -2.9395  -2.9006  -2.7415  -2.7121  -2.6840  -2.6792
    -2.6407  -2.6368  -2.6045  -2.5999  -2.5741  -2.5581  -2.5002  -2.4604
    -2.4123  -2.4101  -2.3950  -2.3253  -2.3186  -2.3074  -2.2477  -2.2207
    -2.1677  -2.1384  -2.1292  -2.1268  -2.1218  -1.9886  -1.9505  -1.9247
    -1.5774  -1.5114  -1.4700  -1.4471  -1.4328  -1.3877  -1.3390  -1.3068
    -1.2551  -1.2031  -1.1404  -1.0661  -0.8223  -0.6782  -0.6750  -0.4094
     0.9950   1.0149   1.0742   1.0749   1.1055   1.1260   1.1444   1.1587
     1.1692   1.1886   1.2247   1.2293   1.2527   1.2784   1.3059   1.3541
     1.3664   1.4134   1.4593   1.4780   1.4836   1.5070   1.5518   1.5719
     1.5897   1.5902   1.6110   1.6654   1.6808   1.7255   1.7443   1.7543
     1.7903

          k = 0.0000 0.3849 0.0000 (264198 PWs)   bands (ev):

   -70.3753 -56.3529 -56.3510 -56.3508 -56.3451 -56.3449 -56.3432 -56.3215
   -56.3127 -56.3127 -56.3044 -56.3041 -56.3035 -56.2587 -56.2481 -56.2481
   -41.9519 -41.7022 -41.7022 -32.5592 -32.5583 -32.5421 -32.5367 -32.5191
   -32.5113 -32.5075 -32.4883 -32.4848 -32.4722 -32.4675 -32.4591 -32.4369
   -32.4316 -32.4236 -32.4172 -32.4160 -32.4151 -32.4125 -32.4034 -32.4016
   -32.4012 -32.3943 -32.3910 -32.3876 -32.3799 -32.3694 -32.3688 -32.3680
   -32.3650 -32.3611 -32.3588 -32.3541 -32.3535 -32.3530 -32.3523 -32.3400
   -32.3391 -32.3324 -32.3323 -32.3244 -32.3135 -32.3135 -32.2526 -32.2495
   -14.7546 -14.5277 -14.3330 -14.3032 -14.0050 -13.9636 -13.8376 -13.8348
   -13.7384 -13.7147 -13.7015 -13.6330 -13.5860 -13.5504 -13.5023 -13.4736
   -13.4644 -13.4316 -13.4174 -13.4150 -13.3904 -13.3131 -13.3109 -13.3090
   -13.2933 -13.2543 -13.2133 -13.2080 -13.1976 -13.1733 -13.1122 -13.1079
    -6.1033  -6.0738  -6.0355  -5.9612  -5.7897  -5.7420  -5.6793  -5.5955
    -5.5450  -5.5131  -5.4843  -5.4712  -5.4577  -5.4489  -5.4458  -5.4148
    -5.3297  -5.3219  -5.3058  -5.2495  -5.2332  -5.2059  -5.0922  -4.7968
    -4.7698  -4.7698  -4.7427  -4.7084  -4.6529  -4.6449  -4.6269  -4.6093
    -4.5754  -4.5635  -4.5113  -4.5041  -4.4740  -4.4195  -4.4076  -4.3861
    -4.3074  -4.2464  -4.0514  -3.9951  -3.9025  -3.9005  -3.7956  -3.7840
    -3.7482  -3.7373  -3.7089  -3.6845  -3.6817  -3.6249  -3.6079  -3.4644
    -3.4399  -3.4215  -3.2829  -3.2571  -3.2444  -3.2410  -3.2122  -3.0468
    -3.0310  -3.0174  -2.9919  -2.9464  -2.8645  -2.7636  -2.7521  -2.7454
    -2.6761  -2.6429  -2.6240  -2.6191  -2.6059  -2.5704  -2.5351  -2.4972
    -2.4915  -2.4461  -2.4408  -2.4364  -2.3855  -2.2838  -2.2598  -2.2151
    -2.2060  -2.1829  -2.0373  -2.0248  -2.0035  -2.0017  -1.9498  -1.9116
    -1.6459  -1.5699  -1.4703  -1.4612  -1.4084  -1.3388  -1.3312  -1.3114
    -1.2240  -1.1623  -1.0225  -1.0028  -0.8259  -0.6306  -0.6176  -0.4130
     0.8671   0.9259   1.0290   1.0391   1.0559   1.0838   1.1152   1.1411
     1.1682   1.2001   1.2170   1.2382   1.2730   1.3090   1.3196   1.3568
     1.3690   1.4052   1.4306   1.4425   1.4437   1.4610   1.4872   1.5073
     1.5261   1.5783   1.5883   1.6030   1.6368   1.6658   1.7610   1.7626
     1.7715

          k = 0.0000-0.5774 0.0000 (264178 PWs)   bands (ev):

   -70.3753 -56.3528 -56.3512 -56.3508 -56.3451 -56.3448 -56.3433 -56.3215
   -56.3128 -56.3127 -56.3045 -56.3041 -56.3035 -56.2587 -56.2481 -56.2481
   -41.9519 -41.7022 -41.7022 -32.5569 -32.5531 -32.5433 -32.5339 -32.5251
   -32.5136 -32.5112 -32.4858 -32.4843 -32.4731 -32.4694 -32.4649 -32.4387
   -32.4295 -32.4225 -32.4186 -32.4158 -32.4153 -32.4074 -32.4035 -32.4028
   -32.4005 -32.3948 -32.3886 -32.3871 -32.3779 -32.3692 -32.3681 -32.3669
   -32.3641 -32.3599 -32.3588 -32.3535 -32.3528 -32.3517 -32.3507 -32.3437
   -32.3424 -32.3328 -32.3325 -32.3243 -32.3135 -32.3134 -32.2539 -32.2497
   -14.6972 -14.6138 -14.3502 -14.3187 -13.8827 -13.8655 -13.8467 -13.8217
   -13.8207 -13.7409 -13.6920 -13.6621 -13.6422 -13.5926 -13.5035 -13.4735
   -13.4311 -13.4175 -13.4153 -13.3814 -13.3674 -13.3634 -13.3179 -13.2949
   -13.2901 -13.2739 -13.2132 -13.2078 -13.1980 -13.1725 -13.1042 -13.0993
    -5.9920  -5.9420  -5.9284  -5.8998  -5.8854  -5.8479  -5.8021  -5.7944
    -5.5381  -5.5178  -5.4956  -5.4843  -5.4585  -5.4445  -5.4292  -5.4020
    -5.3563  -5.3486  -5.2924  -5.2434  -5.2408  -5.2110  -4.9442  -4.8725
    -4.7569  -4.7486  -4.7194  -4.6921  -4.6804  -4.6307  -4.6142  -4.5734
    -4.5663  -4.5527  -4.5349  -4.5271  -4.5191  -4.5039  -4.4398  -4.4360
    -4.3592  -4.2060  -4.0902  -4.0226  -3.8687  -3.7135  -3.7109  -3.7063
    -3.6902  -3.6761  -3.6680  -3.6567  -3.6389  -3.6214  -3.6130  -3.5884
    -3.5160  -3.4654  -3.4371  -3.3075  -3.1724  -3.1104  -3.1047  -3.0220
    -2.9359  -2.9063  -2.8910  -2.8540  -2.8106  -2.7884  -2.7876  -2.7872
    -2.7725  -2.7083  -2.6926  -2.6912  -2.6525  -2.6457  -2.6131  -2.5909
    -2.5808  -2.5575  -2.5045  -2.4047  -2.3547  -2.2952  -2.2786  -2.2073
    -2.1581  -2.1457  -2.0599  -1.9957  -1.9716  -1.9657  -1.9011  -1.8911
    -1.6644  -1.6030  -1.4659  -1.4649  -1.4168  -1.3271  -1.3263  -1.2954
    -1.2154  -1.1424  -0.9812  -0.9600  -0.8368  -0.6034  -0.5845  -0.4171
     0.8091   0.8870   1.0041   1.0064   1.0467   1.0470   1.0980   1.1233
     1.1720   1.2143   1.2313   1.2607   1.3091   1.3220   1.3276   1.3296
     1.3660   1.3908   1.4032   1.4069   1.4178   1.4453   1.4567   1.4663
     1.5279   1.5613   1.5800   1.6135   1.6182   1.6383   1.7297   1.7780
     1.7844

          k = 0.1667 0.2887 0.0000 (264148 PWs)   bands (ev):

   -70.3753 -56.3529 -56.3509 -56.3508 -56.3451 -56.3450 -56.3432 -56.3216
   -56.3127 -56.3127 -56.3044 -56.3041 -56.3036 -56.2587 -56.2481 -56.2481
   -41.9519 -41.7022 -41.7022 -32.5607 -32.5595 -32.5447 -32.5344 -32.5169
   -32.5122 -32.5027 -32.4936 -32.4815 -32.4725 -32.4693 -32.4491 -32.4404
   -32.4324 -32.4241 -32.4191 -32.4164 -32.4152 -32.4134 -32.4032 -32.4018
   -32.3999 -32.3941 -32.3925 -32.3879 -32.3808 -32.3706 -32.3686 -32.3681
   -32.3656 -32.3601 -32.3589 -32.3562 -32.3535 -32.3532 -32.3530 -32.3389
   -32.3370 -32.3323 -32.3321 -32.3246 -32.3135 -32.3134 -32.2518 -32.2495
   -14.7718 -14.4729 -14.4031 -14.1687 -14.1433 -13.9450 -13.8904 -13.8437
   -13.7300 -13.6980 -13.6464 -13.6060 -13.5597 -13.5517 -13.5059 -13.5016
   -13.4898 -13.4295 -13.4257 -13.4162 -13.3658 -13.3503 -13.3150 -13.2946
   -13.2619 -13.2484 -13.2342 -13.2135 -13.1903 -13.1650 -13.1253 -13.1074
    -6.1355  -6.0971  -6.0830  -5.9863  -5.7024  -5.6719  -5.6371  -5.6112
    -5.5955  -5.5526  -5.4889  -5.4788  -5.4504  -5.4255  -5.3862  -5.3692
    -5.3440  -5.3257  -5.3040  -5.2945  -5.2167  -5.1720  -5.0262  -4.9964
    -4.7720  -4.7619  -4.7112  -4.7006  -4.6338  -4.6124  -4.6019  -4.5762
    -4.5638  -4.5569  -4.5159  -4.5098  -4.5040  -4.4811  -4.4526  -4.4021
    -4.1780  -4.0984  -4.0845  -4.0784  -3.9982  -3.8994  -3.8178  -3.7899
    -3.7407  -3.7087  -3.6931  -3.6728  -3.6539  -3.5997  -3.5963  -3.5960
    -3.4959  -3.4815  -3.3114  -3.2889  -3.2257  -3.1982  -3.1784  -3.1278
    -3.1014  -3.0768  -2.9648  -2.8207  -2.7896  -2.7508  -2.7259  -2.7165
    -2.6836  -2.6794  -2.6584  -2.6264  -2.6006  -2.5872  -2.4942  -2.4822
    -2.4590  -2.4412  -2.4159  -2.3555  -2.3450  -2.3053  -2.2739  -2.1863
    -2.1779  -2.1363  -2.1166  -2.0944  -2.0318  -2.0220  -1.9686  -1.9055
    -1.6060  -1.5236  -1.5044  -1.4475  -1.4147  -1.3583  -1.3250  -1.3183
    -1.2643  -1.1213  -1.0748  -1.0120  -0.8239  -0.6602  -0.6158  -0.4119
     0.8641   0.9984   1.0262   1.0427   1.0692   1.1038   1.1409   1.1577
     1.1634   1.1701   1.2137   1.2265   1.2818   1.3003   1.3088   1.3556
     1.3902   1.4030   1.4322   1.4372   1.4555   1.4853   1.4981   1.5285
     1.5616   1.5667   1.5888   1.6003   1.6069   1.6681   1.7185   1.8319
     1.8374

          k = 0.1667 0.4811 0.0000 (264220 PWs)   bands (ev):

   -70.3753 -56.3528 -56.3511 -56.3509 -56.3451 -56.3448 -56.3433 -56.3215
   -56.3128 -56.3127 -56.3045 -56.3041 -56.3035 -56.2587 -56.2481 -56.2481
   -41.9519 -41.7022 -41.7022 -32.5565 -32.5532 -32.5431 -32.5372 -32.5211
   -32.5118 -32.5097 -32.4950 -32.4842 -32.4746 -32.4680 -32.4557 -32.4410
   -32.4285 -32.4226 -32.4192 -32.4180 -32.4159 -32.4139 -32.4030 -32.4009
   -32.3952 -32.3948 -32.3885 -32.3871 -32.3770 -32.3699 -32.3690 -32.3682
   -32.3625 -32.3601 -32.3587 -32.3535 -32.3535 -32.3528 -32.3499 -32.3430
   -32.3414 -32.3334 -32.3325 -32.3247 -32.3135 -32.3134 -32.2535 -32.2500
   -14.7079 -14.5730 -14.4598 -14.1843 -14.0207 -13.8744 -13.8231 -13.8205
   -13.7417 -13.7284 -13.6989 -13.6755 -13.5990 -13.5710 -13.5499 -13.5134
   -13.4656 -13.4173 -13.3997 -13.3627 -13.3613 -13.3426 -13.3165 -13.3042
   -13.2756 -13.2623 -13.2475 -13.2249 -13.1817 -13.1604 -13.1154 -13.0923
    -6.0237  -5.9666  -5.9316  -5.8881  -5.8513  -5.7954  -5.7416  -5.7067
    -5.6879  -5.6037  -5.5922  -5.5359  -5.5347  -5.4425  -5.3616  -5.3379
    -5.3109  -5.3059  -5.2807  -5.2501  -5.1516  -5.0908  -5.0086  -4.8452
    -4.7795  -4.7609  -4.7470  -4.7156  -4.6854  -4.6635  -4.6510  -4.6196
    -4.6020  -4.5726  -4.5600  -4.5395  -4.5110  -4.4848  -4.4506  -4.4473
    -4.2696  -4.2102  -4.0014  -3.9173  -3.8457  -3.7640  -3.7544  -3.7137
    -3.6973  -3.6849  -3.6821  -3.6780  -3.6376  -3.6093  -3.5470  -3.5067
    -3.4713  -3.4484  -3.4422  -3.4072  -3.2619  -3.2449  -3.1864  -3.0055
    -2.9362  -2.8932  -2.8629  -2.8522  -2.8242  -2.8013  -2.7883  -2.7655
    -2.7315  -2.7195  -2.6829  -2.6601  -2.6044  -2.5815  -2.5787  -2.5611
    -2.5217  -2.4960  -2.4720  -2.4423  -2.3937  -2.3655  -2.2948  -2.2591
    -2.1731  -2.1640  -2.1197  -2.0220  -1.9640  -1.9409  -1.9090  -1.8776
    -1.6111  -1.5535  -1.4943  -1.4571  -1.4313  -1.3460  -1.3252  -1.2934
    -1.2641  -1.0781  -0.9939  -0.9615  -0.8387  -0.6387  -0.5454  -0.4197
     0.7585   0.9437   0.9715   1.0026   1.0399   1.0994   1.1308   1.1551
     1.1701   1.1926   1.2156   1.2352   1.2898   1.3116   1.3218   1.3227
     1.3716   1.3873   1.4115   1.4292   1.4437   1.4509   1.4670   1.4783
     1.5121   1.5228   1.5311   1.5795   1.6170   1.6577   1.6978   1.7048
     1.7909

          k = 0.3333 0.5774 0.0000 (264198 PWs)   bands (ev):

   -70.3753 -56.3527 -56.3511 -56.3510 -56.3450 -56.3449 -56.3433 -56.3215
   -56.3127 -56.3127 -56.3045 -56.3041 -56.3035 -56.2587 -56.2481 -56.2481
   -41.9519 -41.7022 -41.7022 -32.5531 -32.5489 -32.5486 -32.5371 -32.5183
   -32.5151 -32.5070 -32.5008 -32.4913 -32.4700 -32.4660 -32.4539 -32.4434
   -32.4260 -32.4228 -32.4219 -32.4182 -32.4167 -32.4167 -32.4024 -32.4010
   -32.3951 -32.3901 -32.3873 -32.3868 -32.3736 -32.3729 -32.3689 -32.3685
   -32.3601 -32.3586 -32.3575 -32.3568 -32.3535 -32.3527 -32.3486 -32.3428
   -32.3427 -32.3347 -32.3325 -32.3252 -32.3135 -32.3134 -32.2538 -32.2504
   -14.6699 -14.5601 -14.5582 -14.0564 -14.0218 -14.0185 -13.8143 -13.7183
   -13.7143 -13.7052 -13.6846 -13.6745 -13.6238 -13.6228 -13.6136 -13.5151
   -13.4621 -13.4378 -13.3979 -13.3363 -13.3306 -13.3252 -13.3099 -13.3037
   -13.2875 -13.2824 -13.2500 -13.2482 -13.1690 -13.1569 -13.1172 -13.0859
    -5.9222  -5.8923  -5.8577  -5.8190  -5.8074  -5.8037  -5.7809  -5.7783
    -5.7682  -5.7311  -5.6942  -5.6887  -5.5581  -5.4270  -5.3987  -5.3409
    -5.2430  -5.2428  -5.2425  -5.1509  -5.0268  -4.9665  -4.9498  -4.9335
    -4.8624  -4.8578  -4.7589  -4.7485  -4.7343  -4.6950  -4.6587  -4.6563
    -4.6510  -4.6125  -4.5879  -4.5778  -4.4990  -4.4950  -4.4859  -4.3074
    -4.1993  -4.1433  -4.0899  -3.8462  -3.7475  -3.7141  -3.7025  -3.6978
    -3.6970  -3.6720  -3.6298  -3.6290  -3.6274  -3.6172  -3.5902  -3.5887
    -3.5460  -3.4410  -3.4298  -3.3404  -3.2395  -3.2369  -3.1782  -3.1735
    -3.1322  -2.8814  -2.8521  -2.8450  -2.8246  -2.7318  -2.7307  -2.7179
    -2.7104  -2.6514  -2.6326  -2.6185  -2.5741  -2.5541  -2.5207  -2.5074
    -2.5038  -2.4999  -2.4923  -2.4753  -2.4747  -2.4443  -2.4397  -2.3917
    -2.2851  -2.1712  -2.0773  -2.0109  -1.9477  -1.9015  -1.8960  -1.8442
    -1.5470  -1.5254  -1.5075  -1.4848  -1.4541  -1.3476  -1.3339  -1.2885
    -1.2775  -1.0128  -1.0070  -0.9280  -0.8562  -0.6444  -0.4964  -0.4317
     0.7029   0.9350   0.9354   0.9889   1.0781   1.0938   1.1445   1.1760
     1.1823   1.2101   1.2210   1.2316   1.2358   1.3111   1.3288   1.3304
     1.3426   1.3514   1.4048   1.4065   1.4301   1.4684   1.4716   1.4862
     1.4878   1.5248   1.5273   1.5472   1.5710   1.5947   1.6486   1.7601
     1.8289

     the Fermi energy is    -1.1971 ev

!    total energy              =  -11323.37640145 Ry

     total all-electron energy =   -272230.079630 Ry
     estimated scf accuracy    <       0.00000004 Ry
     smearing contrib. (-TS)   =      -0.00900521 Ry
     internal energy E=F+TS    =  -11323.36739623 Ry

     The total energy is F=E-TS. E is the sum of the following terms:
     one-electron contribution =  -14874.66857699 Ry
     hartree contribution      =    7473.85827411 Ry
     xc contribution           =    -506.54482714 Ry
     ewald contribution        =    5361.94598504 Ry
     Hubbard energy            =       0.18051465 Ry
     one-center paw contrib.   =   -8778.13876591 Ry

     total magnetization       =    -0.52 Bohr mag/cell
     absolute magnetization    =     8.28 Bohr mag/cell

     convergence has been achieved in  23 iterations

     Writing output data file ./tmp/nbse2cr.save/
 
     init_run     :     40.97s CPU     43.46s WALL (       1 calls)
     electrons    :   1674.60s CPU   1688.16s WALL (       1 calls)

     Called by init_run:
     wfcinit      :     25.55s CPU     26.24s WALL (       1 calls)
     potinit      :      4.85s CPU      5.52s WALL (       1 calls)
     hinit0       :      7.50s CPU      8.32s WALL (       1 calls)

     Called by electrons:
     c_bands      :   1372.97s CPU   1378.64s WALL (      24 calls)
     sum_band     :    173.25s CPU    177.26s WALL (      24 calls)
     v_of_rho     :     13.78s CPU     14.08s WALL (      24 calls)
     newd         :     14.98s CPU     17.61s WALL (      24 calls)
     PAW_pot      :     10.26s CPU     10.59s WALL (      24 calls)
     mix_rho      :     89.88s CPU     90.56s WALL (      24 calls)

     Called by c_bands:
     init_us_2    :     10.31s CPU     10.36s WALL (     700 calls)
     cegterg      :   1337.61s CPU   1343.07s WALL (     336 calls)

     Called by *egterg:
     cdiaghg      :    118.65s CPU    119.29s WALL (    1996 calls)
     h_psi        :    684.42s CPU    688.30s WALL (    2024 calls)
     s_psi        :     74.40s CPU     74.50s WALL (    2038 calls)
     g_psi        :      3.17s CPU      3.17s WALL (    1674 calls)

     Called by h_psi:
     h_psi:calbec :     84.23s CPU     84.38s WALL (    2024 calls)
     vloc_psi     :    506.06s CPU    509.37s WALL (    2024 calls)
     add_vuspsi   :     73.42s CPU     73.58s WALL (    2024 calls)
     vhpsi        :     13.47s CPU     13.50s WALL (    2024 calls)

     General routines
     calbec       :    122.08s CPU    122.28s WALL (    4734 calls)
     fft          :      4.60s CPU      5.35s WALL (     596 calls)
     ffts         :     50.25s CPU     50.68s WALL (   18094 calls)
     fftw         :    541.21s CPU    544.56s WALL (  538614 calls)
     interpolate  :      0.57s CPU      0.78s WALL (      48 calls)
     davcio       :      0.00s CPU      0.00s WALL (      14 calls)
 
     Parallel routines

     Hubbard U routines
     new_ns       :      3.78s CPU      3.88s WALL (      24 calls)
     vhpsi        :     13.47s CPU     13.50s WALL (    2024 calls)
 
     PWSCF        :  28m48.39s CPU  29m12.54s WALL

 
   This run was terminated on:  10:36:24  12Jul2023            

=------------------------------------------------------------------------------=
   JOB DONE.
=------------------------------------------------------------------------------=
