 
             +---------------------------------------------------+
             |                                                   |
             |                   WANNIER90                       |
             |                                                   |
             +---------------------------------------------------+
             |                                                   |
             |        Welcome to the Maximally-Localized         |
             |        Generalized Wannier Functions code         |
             |            http://www.wannier.org                 |
             |                                                   |
             |                                                   |
             |  Wannier90 Developer Group:                       |
             |    Giovanni Pizzi    (EPFL)                       |
             |    Valerio Vitale    (Cambridge)                  |
             |    David Vanderbilt  (Rutgers University)         |
             |    Nicola Marzari    (EPFL)                       |
             |    Ivo Souza         (Universidad del Pais Vasco) |
             |    Arash A. Mostofi  (Imperial College London)    |
             |    Jonathan R. Yates (University of Oxford)       |
             |                                                   |
             |  For the full list of Wannier90 3.x authors,      |
             |  please check the code documentation and the      |
             |  README on the GitHub page of the code            |
             |                                                   |
             |                                                   |
             |  Please cite                                      |
             |                                                   |
             |  [ref] "Wannier90 as a community code:            |
             |        new features and applications",            |
             |        G. Pizzi et al., J. Phys. Cond. Matt. 32,  |
             |        165902 (2020).                             |
             |        http://doi.org/10.1088/1361-648X/ab51ff    |
             |                                                   |
             |  in any publications arising from the use of      |
             |  this code. For the method please cite            |
             |                                                   |
             |  [ref] "Maximally Localized Generalised Wannier   |
             |         Functions for Composite Energy Bands"     |
             |         N. Marzari and D. Vanderbilt              |
             |         Phys. Rev. B 56 12847 (1997)              |
             |                                                   |
             |  [ref] "Maximally Localized Wannier Functions     |
             |         for Entangled Energy Bands"               |
             |         I. Souza, N. Marzari and D. Vanderbilt    |
             |         Phys. Rev. B 65 035109 (2001)             |
             |                                                   |
             |                                                   |
             | Copyright (c) 1996-2020                           |
             |        The Wannier90 Developer Group and          |
             |        individual contributors                    |
             |                                                   |
             |      Release: 3.1.0        5th March    2020      |
             |                                                   |
             | This program is free software; you can            |
             | redistribute it and/or modify it under the terms  |
             | of the GNU General Public License as published by |
             | the Free Software Foundation; either version 2 of |
             | the License, or (at your option) any later version|
             |                                                   |
             | This program is distributed in the hope that it   |
             | will be useful, but WITHOUT ANY WARRANTY; without |
             | even the implied warranty of MERCHANTABILITY or   |
             | FITNESS FOR A PARTICULAR PURPOSE. See the GNU     |
             | General Public License for more details.          |
             |                                                   |
             | You should have received a copy of the GNU General|
             | Public License along with this program; if not,   |
             | write to the Free Software Foundation, Inc.,      |
             | 675 Mass Ave, Cambridge, MA 02139, USA.           |
             |                                                   |
             +---------------------------------------------------+
             |    Execution started on 11Jul2023 at 12:42:47     |
             +---------------------------------------------------+
 
 ******************************************************************************
 * -> Using CODATA 2006 constant values                                       *
 *    (http://physics.nist.gov/cuu/Constants/index.html)                      *
 * -> Using Bohr value from CODATA                                            *
 ******************************************************************************
 

 Running in parallel on 160 CPUs

 
                                    ------
                                    SYSTEM
                                    ------
 
                              Lattice Vectors (Ang)
                    a_1     6.821628   0.000000   0.000000
                    a_2    -3.410814   5.907703   0.000000
                    a_3     0.000000   0.000000  27.331140
 
                   Unit Cell Volume:    1101.44921  (Ang^3)
 
                        Reciprocal-Space Vectors (Ang^-1)
                    b_1     0.921068   0.531779   0.000000
                    b_2     0.000000   1.063558   0.000000
                    b_3     0.000000   0.000000   0.229891
  
 *----------------------------------------------------------------------------*
 |   Site       Fractional Coordinate          Cartesian Coordinate (Ang)     |
 +----------------------------------------------------------------------------+
 | Cr   1   0.33333   0.66667   0.29373   |   -0.00000   3.93847   8.02789    |
 | Cr   2   0.66667   0.33333   0.29340   |    3.41081   1.96923   8.01898    |
 | Br   1   0.36461   0.36599   0.24085   |    1.23890   2.16217   6.58273    |
 | Br   2   0.63401  -0.00138   0.24085   |    4.32968  -0.00817   6.58273    |
 | Br   3   0.00138   0.63539   0.24085   |   -2.15777   3.75370   6.58273    |
 | Br   4   0.63871   0.63828   0.34551   |    2.18001   3.77079   9.44319    |
 | Br   5   0.36172   0.00043   0.34551   |    2.46602   0.00254   9.44319    |
 | Br   6  -0.00043   0.36129   0.34551   |   -1.23522   2.13437   9.44319    |
 | Nb   1   0.00000   0.00000   0.05746   |    0.00000   0.00000   1.57036    |
 | Nb   2   0.49853   0.49959   0.05758   |    1.69679   2.95143   1.57382    |
 | Nb   3   0.00106   0.50147   0.05758   |   -1.70319   2.96252   1.57382    |
 | Nb   4   0.50041  -0.00106   0.05758   |    3.41722  -0.00625   1.57382    |
 | Se   1   0.33374   0.16625  -0.00483   |    1.70964   0.98215  -0.13200    |
 | Se   2   0.33343   0.16470   0.11931   |    1.71277   0.97299   3.26101    |
 | Se   3   0.83250   0.66626  -0.00483   |    3.40656   3.93604  -0.13200    |
 | Se   4   0.83127   0.66657   0.11931   |    3.39706   3.93791   3.26101    |
 | Se   5   0.33333   0.66667  -0.00506   |   -0.00000   3.93847  -0.13817    |
 | Se   6   0.33333   0.66667   0.12001   |   -0.00000   3.93847   3.27990    |
 | Se   7   0.83375   0.16750  -0.00483   |    5.11625   0.98952  -0.13200    |
 | Se   8   0.83530   0.16873   0.11931   |    5.12261   0.99681   3.26101    |
 *----------------------------------------------------------------------------*
                                -----------
                                PROJECTIONS
                                -----------
  
 +----------------------------------------------------------------------------+
 |     Frac. Coord.   l mr  r        z-axis               x-axis          Z/a |
 +----------------------------------------------------------------------------+
 |  0.33  0.67  0.29  2  1  1  0.000  0.000  1.000  1.000  0.000  0.000   1.0 |
 |  0.33  0.67  0.29  2  2  1  0.000  0.000  1.000  1.000  0.000  0.000   1.0 |
 |  0.33  0.67  0.29  2  3  1  0.000  0.000  1.000  1.000  0.000  0.000   1.0 |
 |  0.33  0.67  0.29  2  4  1  0.000  0.000  1.000  1.000  0.000  0.000   1.0 |
 |  0.33  0.67  0.29  2  5  1  0.000  0.000  1.000  1.000  0.000  0.000   1.0 |
 |  0.67  0.33  0.29  2  1  1  0.000  0.000  1.000  1.000  0.000  0.000   1.0 |
 |  0.67  0.33  0.29  2  2  1  0.000  0.000  1.000  1.000  0.000  0.000   1.0 |
 |  0.67  0.33  0.29  2  3  1  0.000  0.000  1.000  1.000  0.000  0.000   1.0 |
 |  0.67  0.33  0.29  2  4  1  0.000  0.000  1.000  1.000  0.000  0.000   1.0 |
 |  0.67  0.33  0.29  2  5  1  0.000  0.000  1.000  1.000  0.000  0.000   1.0 |
 |  0.36  0.37  0.24  1  1  1  0.000  0.000  1.000  1.000  0.000  0.000   1.0 |
 |  0.36  0.37  0.24  1  2  1  0.000  0.000  1.000  1.000  0.000  0.000   1.0 |
 |  0.36  0.37  0.24  1  3  1  0.000  0.000  1.000  1.000  0.000  0.000   1.0 |
 |  0.63 -0.00  0.24  1  1  1  0.000  0.000  1.000  1.000  0.000  0.000   1.0 |
 |  0.63 -0.00  0.24  1  2  1  0.000  0.000  1.000  1.000  0.000  0.000   1.0 |
 |  0.63 -0.00  0.24  1  3  1  0.000  0.000  1.000  1.000  0.000  0.000   1.0 |
 |  0.00  0.64  0.24  1  1  1  0.000  0.000  1.000  1.000  0.000  0.000   1.0 |
 |  0.00  0.64  0.24  1  2  1  0.000  0.000  1.000  1.000  0.000  0.000   1.0 |
 |  0.00  0.64  0.24  1  3  1  0.000  0.000  1.000  1.000  0.000  0.000   1.0 |
 |  0.64  0.64  0.35  1  1  1  0.000  0.000  1.000  1.000  0.000  0.000   1.0 |
 |  0.64  0.64  0.35  1  2  1  0.000  0.000  1.000  1.000  0.000  0.000   1.0 |
 |  0.64  0.64  0.35  1  3  1  0.000  0.000  1.000  1.000  0.000  0.000   1.0 |
 |  0.36  0.00  0.35  1  1  1  0.000  0.000  1.000  1.000  0.000  0.000   1.0 |
 |  0.36  0.00  0.35  1  2  1  0.000  0.000  1.000  1.000  0.000  0.000   1.0 |
 |  0.36  0.00  0.35  1  3  1  0.000  0.000  1.000  1.000  0.000  0.000   1.0 |
 | -0.00  0.36  0.35  1  1  1  0.000  0.000  1.000  1.000  0.000  0.000   1.0 |
 | -0.00  0.36  0.35  1  2  1  0.000  0.000  1.000  1.000  0.000  0.000   1.0 |
 | -0.00  0.36  0.35  1  3  1  0.000  0.000  1.000  1.000  0.000  0.000   1.0 |
 |  0.33  0.17 -0.00  1  1  1  0.000  0.000  1.000  1.000  0.000  0.000   1.0 |
 |  0.33  0.17 -0.00  1  2  1  0.000  0.000  1.000  1.000  0.000  0.000   1.0 |
 |  0.33  0.17 -0.00  1  3  1  0.000  0.000  1.000  1.000  0.000  0.000   1.0 |
 |  0.33  0.16  0.12  1  1  1  0.000  0.000  1.000  1.000  0.000  0.000   1.0 |
 |  0.33  0.16  0.12  1  2  1  0.000  0.000  1.000  1.000  0.000  0.000   1.0 |
 |  0.33  0.16  0.12  1  3  1  0.000  0.000  1.000  1.000  0.000  0.000   1.0 |
 |  0.83  0.67 -0.00  1  1  1  0.000  0.000  1.000  1.000  0.000  0.000   1.0 |
 |  0.83  0.67 -0.00  1  2  1  0.000  0.000  1.000  1.000  0.000  0.000   1.0 |
 |  0.83  0.67 -0.00  1  3  1  0.000  0.000  1.000  1.000  0.000  0.000   1.0 |
 |  0.83  0.67  0.12  1  1  1  0.000  0.000  1.000  1.000  0.000  0.000   1.0 |
 |  0.83  0.67  0.12  1  2  1  0.000  0.000  1.000  1.000  0.000  0.000   1.0 |
 |  0.83  0.67  0.12  1  3  1  0.000  0.000  1.000  1.000  0.000  0.000   1.0 |
 |  0.33  0.67 -0.01  1  1  1  0.000  0.000  1.000  1.000  0.000  0.000   1.0 |
 |  0.33  0.67 -0.01  1  2  1  0.000  0.000  1.000  1.000  0.000  0.000   1.0 |
 |  0.33  0.67 -0.01  1  3  1  0.000  0.000  1.000  1.000  0.000  0.000   1.0 |
 |  0.33  0.67  0.12  1  1  1  0.000  0.000  1.000  1.000  0.000  0.000   1.0 |
 |  0.33  0.67  0.12  1  2  1  0.000  0.000  1.000  1.000  0.000  0.000   1.0 |
 |  0.33  0.67  0.12  1  3  1  0.000  0.000  1.000  1.000  0.000  0.000   1.0 |
 |  0.83  0.17 -0.00  1  1  1  0.000  0.000  1.000  1.000  0.000  0.000   1.0 |
 |  0.83  0.17 -0.00  1  2  1  0.000  0.000  1.000  1.000  0.000  0.000   1.0 |
 |  0.83  0.17 -0.00  1  3  1  0.000  0.000  1.000  1.000  0.000  0.000   1.0 |
 |  0.84  0.17  0.12  1  1  1  0.000  0.000  1.000  1.000  0.000  0.000   1.0 |
 |  0.84  0.17  0.12  1  2  1  0.000  0.000  1.000  1.000  0.000  0.000   1.0 |
 |  0.84  0.17  0.12  1  3  1  0.000  0.000  1.000  1.000  0.000  0.000   1.0 |
 |  0.00  0.00  0.06  2  1  1  0.000  0.000  1.000  1.000  0.000  0.000   1.0 |
 |  0.00  0.00  0.06  2  4  1  0.000  0.000  1.000  1.000  0.000  0.000   1.0 |
 |  0.00  0.00  0.06  2  5  1  0.000  0.000  1.000  1.000  0.000  0.000   1.0 |
 |  0.50  0.50  0.06  2  1  1  0.000  0.000  1.000  1.000  0.000  0.000   1.0 |
 |  0.50  0.50  0.06  2  4  1  0.000  0.000  1.000  1.000  0.000  0.000   1.0 |
 |  0.50  0.50  0.06  2  5  1  0.000  0.000  1.000  1.000  0.000  0.000   1.0 |
 |  0.00  0.50  0.06  2  1  1  0.000  0.000  1.000  1.000  0.000  0.000   1.0 |
 |  0.00  0.50  0.06  2  4  1  0.000  0.000  1.000  1.000  0.000  0.000   1.0 |
 |  0.00  0.50  0.06  2  5  1  0.000  0.000  1.000  1.000  0.000  0.000   1.0 |
 |  0.50 -0.00  0.06  2  1  1  0.000  0.000  1.000  1.000  0.000  0.000   1.0 |
 |  0.50 -0.00  0.06  2  4  1  0.000  0.000  1.000  1.000  0.000  0.000   1.0 |
 |  0.50 -0.00  0.06  2  5  1  0.000  0.000  1.000  1.000  0.000  0.000   1.0 |
 +----------------------------------------------------------------------------+
  
                                ------------
                                K-POINT GRID
                                ------------
  
             Grid size =  6 x  6 x  1      Total points =   36
  
 *----------------------------------------------------------------------------*
 | k-point      Fractional Coordinate        Cartesian Coordinate (Ang^-1)    |
 +----------------------------------------------------------------------------+
 |     1    0.00000   0.00000   0.00000   |    0.00000   0.00000   0.00000    |
 |     2    0.00000   0.16667   0.00000   |    0.00000   0.17726   0.00000    |
 |     3    0.00000   0.33333   0.00000   |    0.00000   0.35452   0.00000    |
 |     4    0.00000   0.50000   0.00000   |    0.00000   0.53178   0.00000    |
 |     5    0.00000   0.66667   0.00000   |    0.00000   0.70904   0.00000    |
 |     6    0.00000   0.83333   0.00000   |    0.00000   0.88630   0.00000    |
 |     7    0.16667   0.00000   0.00000   |    0.15351   0.08863   0.00000    |
 |     8    0.16667   0.16667   0.00000   |    0.15351   0.26589   0.00000    |
 |     9    0.16667   0.33333   0.00000   |    0.15351   0.44315   0.00000    |
 |    10    0.16667   0.50000   0.00000   |    0.15351   0.62041   0.00000    |
 |    11    0.16667   0.66667   0.00000   |    0.15351   0.79767   0.00000    |
 |    12    0.16667   0.83333   0.00000   |    0.15351   0.97493   0.00000    |
 |    13    0.33333   0.00000   0.00000   |    0.30702   0.17726   0.00000    |
 |    14    0.33333   0.16667   0.00000   |    0.30702   0.35452   0.00000    |
 |    15    0.33333   0.33333   0.00000   |    0.30702   0.53178   0.00000    |
 |    16    0.33333   0.50000   0.00000   |    0.30702   0.70904   0.00000    |
 |    17    0.33333   0.66667   0.00000   |    0.30702   0.88630   0.00000    |
 |    18    0.33333   0.83333   0.00000   |    0.30702   1.06356   0.00000    |
 |    19    0.50000   0.00000   0.00000   |    0.46053   0.26589   0.00000    |
 |    20    0.50000   0.16667   0.00000   |    0.46053   0.44315   0.00000    |
 |    21    0.50000   0.33333   0.00000   |    0.46053   0.62041   0.00000    |
 |    22    0.50000   0.50000   0.00000   |    0.46053   0.79767   0.00000    |
 |    23    0.50000   0.66667   0.00000   |    0.46053   0.97493   0.00000    |
 |    24    0.50000   0.83333   0.00000   |    0.46053   1.15219   0.00000    |
 |    25    0.66667   0.00000   0.00000   |    0.61405   0.35452   0.00000    |
 |    26    0.66667   0.16667   0.00000   |    0.61405   0.53178   0.00000    |
 |    27    0.66667   0.33333   0.00000   |    0.61405   0.70904   0.00000    |
 |    28    0.66667   0.50000   0.00000   |    0.61405   0.88630   0.00000    |
 |    29    0.66667   0.66667   0.00000   |    0.61405   1.06356   0.00000    |
 |    30    0.66667   0.83333   0.00000   |    0.61405   1.24082   0.00000    |
 |    31    0.83333   0.00000   0.00000   |    0.76756   0.44315   0.00000    |
 |    32    0.83333   0.16667   0.00000   |    0.76756   0.62041   0.00000    |
 |    33    0.83333   0.33333   0.00000   |    0.76756   0.79767   0.00000    |
 |    34    0.83333   0.50000   0.00000   |    0.76756   0.97493   0.00000    |
 |    35    0.83333   0.66667   0.00000   |    0.76756   1.15219   0.00000    |
 |    36    0.83333   0.83333   0.00000   |    0.76756   1.32945   0.00000    |
 *----------------------------------------------------------------------------*
  
  
 *---------------------------------- MAIN ------------------------------------*
 |  Number of Wannier Functions               :                64             |
 |  Number of Objective Wannier Functions     :                64             |
 |  Number of input Bloch states              :               110             |
 |  Output verbosity (1=low, 5=high)          :                 3             |
 |  Timing Level (1=low, 5=high)              :                 1             |
 |  Optimisation (0=memory, 3=speed)          :                 3             |
 |  Length Unit                               :               Ang             |
 |  Post-processing setup (write *.nnkp)      :                 F             |
 |  Using Gamma-only branch of algorithms     :                 F             |
 |  CP code post-processing                   :                 F             |
 |  Wavefunction (UNK) file-type              :       unformatted             |
 |  Wavefunction spin channel                 :                up             |
 *----------------------------------------------------------------------------*
 *------------------------------- WANNIERISE ---------------------------------*
 |  Total number of iterations                :               500             |
 |  Number of CG steps before reset           :                 5             |
 |  Trial step length for line search         :             2.000             |
 |  Convergence tolerence                     :         0.100E-09             |
 |  Convergence window                        :                -1             |
 |  Iterations between writing output         :                50             |
 |  Iterations between backing up to disk     :               100             |
 |  Write r^2_nm to file                      :                 F             |
 |  Write xyz WF centres to file              :                 T             |
 |  Write on-site energies <0n|H|0n> to file  :                 F             |
 |  Use guiding centre to control phases      :                 T             |
 |  Use phases for initial projections        :                 F             |
 |  Iterations before starting guiding centres:                 0             |
 |  Iterations between using guiding centres  :                 1             |
 |  Perform selective localization            :                 F             |
 |  Use constrains in selective localization  :                 F             |
 |  Value of the Lagrange multiplier          :         0.100E+01             |
 *----------------------------------------------------------------------------*
 *------------------------------- DISENTANGLE --------------------------------*
 |  Using band disentanglement                :                 T             |
 |  Total number of iterations                :              4000             |
 |  Mixing ratio                              :             0.500             |
 |  Convergence tolerence                     :         1.000E-10             |
 |  Convergence window                        :                 3             |
 *----------------------------------------------------------------------------*
 *-------------------------------- PLOTTING ----------------------------------*
 |  Plotting Wannier functions                :                 F             |
 |   Size of supercell for plotting           :     2x    2x    2             |
 |   Plotting mode (molecule or crystal)      :           crystal             |
 |   Plotting format                          :          xcrysden             |
 |   Plot radius                              :             3.500             |
 |   Plot scale                               :             1.000             |
 *----------------------------------------------------------------------------*
 |  Plotting Fermi surface                    :                 F             |
 |   Number of plotting points (along b_1)    :                50             |
 |   Plotting format                          :          xcrysden             |
 *----------------------------------------------------------------------------*
 |  Plotting interpolated bandstructure       :                 T             |
 |   Number of K-path sections                :                 3             |
 |   Divisions along first K-path section     :               100             |
 |   Output format                            :           gnuplot             |
 |   Output mode                              :               s-k             |
 *----------------------------------------------------------------------------*
 |   K-space path sections:                                                   |
 |    From: Γ      0.000  0.000  0.000     To: M       0.500  0.000  0.000   |
 |    From: M       0.500  0.000  0.000     To: K       0.333  0.333  0.000   |
 |    From: K       0.333  0.333  0.000     To: Γ      0.000  0.000  0.000   |
 *----------------------------------------------------------------------------*
 |  Plotting Hamiltonian in WF basis          :                 T             |
 *----------------------------------------------------------------------------*
 |  Writing data for Van der Waals post-proc  :                 F             |
 *----------------------------------------------------------------------------*
 *------------------------------- TRANSPORT ----------------------------------*
 |  Transport mode                            :              bulk             |
 |   Hamiltonian from external files          :                 F             |
 |   System extended in                       :              none             |
 |   Centre of the unit cell to which WF are translated (fract. coords):      |
 |                                       0.000000,    0.000000,    0.000000   |
 |  Fermi energy (eV)                         :             0.000             |
 *----------------------------------------------------------------------------*
 Time to read parameters        0.024 (sec)

 *---------------------------------- K-MESH ----------------------------------*
 +----------------------------------------------------------------------------+
 |                    Distance to Nearest-Neighbour Shells                    |
 |                    ------------------------------------                    |
 |          Shell             Distance (Ang^-1)          Multiplicity         |
 |          -----             -----------------          ------------         |
 |             1                   0.177260                      6            |
 |             2                   0.229891                      2            |
 |             3                   0.290295                     12            |
 |             4                   0.307023                      6            |
 |             5                   0.354519                      6            |
 |             6                   0.383553                     12            |
 |             7                   0.422533                     12            |
 |             8                   0.459782                      2            |
 |             9                   0.468985                     12            |
 |            10                   0.492768                     12            |
 |            11                   0.522300                     24            |
 |            12                   0.531779                      6            |
 |            13                   0.552868                     12            |
 |            14                   0.579343                     12            |
 |            15                   0.580589                     12            |
 |            16                   0.614046                      6            |
 |            17                   0.639119                     12            |
 |            18                   0.655669                     12            |
 |            19                   0.656770                     24            |
 |            20                   0.679207                     24            |
 |            21                   0.689673                      2            |
 |            22                   0.702985                     12            |
 |            23                   0.709039                      6            |
 |            24                   0.712089                     12            |
 |            25                   0.745376                     12            |
 |            26                   0.754925                     12            |
 |            27                   0.767106                     12            |
 |            28                   0.772657                     12            |
 |            29                   0.775457                     12            |
 |            30                   0.787320                     24            |
 |            31                   0.806132                     24            |
 |            32                   0.812306                     12            |
 |            33                   0.834024                     24            |
 |            34                   0.844210                     24            |
 |            35                   0.845065                     12            |
 |            36                   0.870884                     12            |
 +----------------------------------------------------------------------------+
 | The b-vectors are chosen automatically                                     |
 | Shell:  1 Multiplicity:  6                                                 |
 | b-vector 1 :        0.000000    0.177260    0.000000      (Ang^-1)         |
 | b-vector 2 :        0.153511    0.088630    0.000000      (Ang^-1)         |
 | b-vector 3 :        0.000000   -0.177260    0.000000      (Ang^-1)         |
 | b-vector 4 :        0.153511   -0.088630    0.000000      (Ang^-1)         |
 | b-vector 5 :       -0.153511   -0.088630    0.000000      (Ang^-1)         |
 | b-vector 6 :       -0.153511    0.088630    0.000000      (Ang^-1)         |
 | Shell:  1 w_b   10.6086192      (Ang^2)                                    |
 | B1 condition is not satisfied: Adding another shell                        |
 | Shell:  2 Multiplicity:  2                                                 |
 | b-vector 1 :        0.000000    0.000000    0.229891      (Ang^-1)         |
 | b-vector 2 :        0.000000    0.000000   -0.229891      (Ang^-1)         |
 | Shell:  1 w_b   10.6086192      (Ang^2)                                    |
 | Shell:  2 w_b    9.4607539      (Ang^2)                                    |
 | The following shells are used:   1,  2                                     |
 +----------------------------------------------------------------------------+
 |                        Shell   # Nearest-Neighbours                        |
 |                        -----   --------------------                        |
 |                          1               6                                 |
 |                          2               2                                 |
 +----------------------------------------------------------------------------+
 | Completeness relation is fully satisfied [Eq. (B1), PRB 56, 12847 (1997)]  |
 +----------------------------------------------------------------------------+
 |                  b_k Vectors (Ang^-1) and Weights (Ang^2)                  |
 |                  ----------------------------------------                  |
 |            No.         b_k(x)      b_k(y)      b_k(z)        w_b           |
 |            ---        --------------------------------     --------        |
 |             1         0.000000    0.177260    0.000000    10.608619        |
 |             2         0.153511    0.088630    0.000000    10.608619        |
 |             3         0.000000   -0.177260    0.000000    10.608619        |
 |             4         0.153511   -0.088630    0.000000    10.608619        |
 |             5        -0.153511   -0.088630    0.000000    10.608619        |
 |             6        -0.153511    0.088630    0.000000    10.608619        |
 |             7         0.000000    0.000000    0.229891     9.460754        |
 |             8         0.000000    0.000000   -0.229891     9.460754        |
 +----------------------------------------------------------------------------+
 |                           b_k Directions (Ang^-1)                          |
 |                           -----------------------                          |
 |            No.           x           y           z                         |
 |            ---        --------------------------------                     |
 |             1         0.000000    0.177260    0.000000                     |
 |             2         0.153511    0.088630    0.000000                     |
 |             3         0.153511   -0.088630    0.000000                     |
 |             4         0.000000    0.000000    0.229891                     |
 +----------------------------------------------------------------------------+
  
 Time to get kmesh              0.034 (sec)
 *============================================================================*
 |                              MEMORY ESTIMATE                               |
 |         Maximum RAM allocated during each phase of the calculation         |
 *============================================================================*
 |                        Disentanglement           81.29 Mb                  |
 |                            Wannierise:           49.97 Mb                  |
 |                                                                            |
 |   N.B. by setting optimisation=0 memory usage will be reduced to:          |
 |                        Disentanglement           77.15 Mb                  |
 |                            Wannierise:           31.97 Mb                  |
 |   However, this will result in more i/o and slow down the calculation      |
 |                          plot_wannier:           49.97 Mb                  |
 *----------------------------------------------------------------------------*
  
 Starting a new Wannier90 calculation ...


 Reading overlaps from crbr3.nbse2.bilayer.up.mmn    :  Created on 11Jul2023 at 12:40:57

 Reading projections from crbr3.nbse2.bilayer.up.amn :  Created on 11Jul2023 at 12:39:57

 Time to read overlaps          8.685 (sec)

 *------------------------------- DISENTANGLE --------------------------------*
 +----------------------------------------------------------------------------+
 |                              Energy  Windows                               |
 |                              ---------------                               |
 |                   Outer:   -6.00000  to   10.00000  (eV)                   |
 |                   Inner:   -6.00000  to    1.00000  (eV)                   |
 +----------------------------------------------------------------------------+
 |                        K-points with Frozen States                         |
 |                        ---------------------------                         |
 |     1     2     3     4     5     6     7     8     9    10    11    12    |
 |    13    14    15    16    17    18    19    20    21    22    23    24    |
 |    25    26    27    28    29    30    31    32    33    34    35    36    |
 +----------------------------------------------------------------------------+
   Number of target bands to extract:   64
 +----------------------------------------------------------------------------+
 |                                  Windows                                   |
 |                                  -------                                   |
 |               K-point      Ndimwin     Ndimfroz    Nfirstwin               |
 |               ----------------------------------------------               |
 |                   1           72           51          39                  |
 |                   2           72           51          39                  |
 |                   3           72           51          39                  |
 |                   4           72           51          39                  |
 |                   5           72           51          39                  |
 |                   6           72           51          39                  |
 |                   7           72           51          39                  |
 |                   8           72           51          39                  |
 |                   9           72           51          39                  |
 |                  10           72           51          39                  |
 |                  11           72           51          39                  |
 |                  12           72           51          39                  |
 |                  13           72           51          39                  |
 |                  14           72           51          39                  |
 |                  15           72           51          39                  |
 |                  16           72           51          39                  |
 |                  17           72           51          39                  |
 |                  18           72           51          39                  |
 |                  19           72           51          39                  |
 |                  20           72           51          39                  |
 |                  21           72           51          39                  |
 |                  22           72           51          39                  |
 |                  23           72           51          39                  |
 |                  24           72           51          39                  |
 |                  25           72           51          39                  |
 |                  26           72           51          39                  |
 |                  27           72           51          39                  |
 |                  28           72           51          39                  |
 |                  29           72           51          39                  |
 |                  30           72           51          39                  |
 |                  31           72           51          39                  |
 |                  32           72           51          39                  |
 |                  33           72           51          39                  |
 |                  34           72           51          39                  |
 |                  35           72           51          39                  |
 |                  36           72           51          39                  |
 +----------------------------------------------------------------------------+

                   Unitarised projection of Wannier functions                  
                   ------------------------------------------                  
   A_mn = <psi_m|g_n> --> S = A.A^+ --> U = S^-1/2.A
   In dis_project... done
   Using an inner window (linner = T)
   In dis_proj_froz...
 K-point   1 ndimwin:  72 we want the 13 leading eigenvector(s) of QPQ
  lambda(  1)=  0.000000000000
  lambda(  2)=  0.000000000000
  lambda(  3)=  0.000000000000
  lambda(  4)=  0.000000000000
  lambda(  5)=  0.000000000000
  lambda(  6)=  0.000000000000
  lambda(  7)=  0.000000000000
  lambda(  8)=  0.000000000000
  lambda(  9)=  0.000000000000
  lambda( 10)=  0.000000000000
  lambda( 11)=  0.000000000000
  lambda( 12)=  0.000000000000
  lambda( 13)=  0.000000000000
  lambda( 14)=  0.000000000000
  lambda( 15)=  0.000000000000
  lambda( 16)=  0.000000000000
  lambda( 17)=  0.000000000000
  lambda( 18)=  0.000000000000
  lambda( 19)=  0.000000000000
  lambda( 20)=  0.000000000000
  lambda( 21)=  0.000000000000
  lambda( 22)=  0.000000000000
  lambda( 23)=  0.000000000000
  lambda( 24)=  0.000000000000
  lambda( 25)=  0.000000000000
  lambda( 26)=  0.000000000000
  lambda( 27)=  0.000000000000
  lambda( 28)=  0.000000000000
  lambda( 29)=  0.000000000000
  lambda( 30)=  0.000000000000
  lambda( 31)=  0.000000000000
  lambda( 32)=  0.000000000000
  lambda( 33)=  0.000000000000
  lambda( 34)=  0.000000000000
  lambda( 35)=  0.000000000000
  lambda( 36)=  0.000000000000
  lambda( 37)=  0.000000000000
  lambda( 38)=  0.000000000000
  lambda( 39)=  0.000000000000
  lambda( 40)=  0.000000000000
  lambda( 41)=  0.000000000000
  lambda( 42)=  0.000000000000
  lambda( 43)=  0.000000000000
  lambda( 44)=  0.000000000000
  lambda( 45)=  0.000000000000
  lambda( 46)=  0.000000000000
  lambda( 47)=  0.000000000000
  lambda( 48)=  0.000000000000
  lambda( 49)=  0.000000000000
  lambda( 50)=  0.000000000000
  lambda( 51)=  0.000000000000
  lambda( 52)=  0.202120607238
  lambda( 53)=  0.206347619371
  lambda( 54)=  0.206351261884
  lambda( 55)=  0.336198578550
  lambda( 56)=  0.340980975945
  lambda( 57)=  0.340984774429
  lambda( 58)=  0.437665228208
  lambda( 59)=  0.437687341354
  lambda( 60)=  1.000000000000
  lambda( 61)=  1.000000000000
  lambda( 62)=  1.000000000000
  lambda( 63)=  1.000000000000
  lambda( 64)=  1.000000000000
  lambda( 65)=  1.000000000000
  lambda( 66)=  1.000000000000
  lambda( 67)=  1.000000000000
  lambda( 68)=  1.000000000000
  lambda( 69)=  1.000000000000
  lambda( 70)=  1.000000000000
  lambda( 71)=  1.000000000000
  lambda( 72)=  1.000000000000

 K-point   2 ndimwin:  72 we want the 13 leading eigenvector(s) of QPQ
  lambda(  1)=  0.000000000000
  lambda(  2)=  0.000000000000
  lambda(  3)=  0.000000000000
  lambda(  4)=  0.000000000000
  lambda(  5)=  0.000000000000
  lambda(  6)=  0.000000000000
  lambda(  7)=  0.000000000000
  lambda(  8)=  0.000000000000
  lambda(  9)=  0.000000000000
  lambda( 10)=  0.000000000000
  lambda( 11)=  0.000000000000
  lambda( 12)=  0.000000000000
  lambda( 13)=  0.000000000000
  lambda( 14)=  0.000000000000
  lambda( 15)=  0.000000000000
  lambda( 16)=  0.000000000000
  lambda( 17)=  0.000000000000
  lambda( 18)=  0.000000000000
  lambda( 19)=  0.000000000000
  lambda( 20)=  0.000000000000
  lambda( 21)=  0.000000000000
  lambda( 22)=  0.000000000000
  lambda( 23)=  0.000000000000
  lambda( 24)=  0.000000000000
  lambda( 25)=  0.000000000000
  lambda( 26)=  0.000000000000
  lambda( 27)=  0.000000000000
  lambda( 28)=  0.000000000000
  lambda( 29)=  0.000000000000
  lambda( 30)=  0.000000000000
  lambda( 31)=  0.000000000000
  lambda( 32)=  0.000000000000
  lambda( 33)=  0.000000000000
  lambda( 34)=  0.000000000000
  lambda( 35)=  0.000000000000
  lambda( 36)=  0.000000000000
  lambda( 37)=  0.000000000000
  lambda( 38)=  0.000000000000
  lambda( 39)=  0.000000000000
  lambda( 40)=  0.000000000000
  lambda( 41)=  0.000000000000
  lambda( 42)=  0.000000000000
  lambda( 43)=  0.000000000000
  lambda( 44)=  0.000000000000
  lambda( 45)=  0.000000000000
  lambda( 46)=  0.000000000000
  lambda( 47)=  0.000000000000
  lambda( 48)=  0.000000000000
  lambda( 49)=  0.000000000000
  lambda( 50)=  0.000000000000
  lambda( 51)=  0.000000000000
  lambda( 52)=  0.196824325392
  lambda( 53)=  0.200348658460
  lambda( 54)=  0.203521738248
  lambda( 55)=  0.310864755806
  lambda( 56)=  0.311787043136
  lambda( 57)=  0.344944742423
  lambda( 58)=  0.354772962287
  lambda( 59)=  0.427412794809
  lambda( 60)=  1.000000000000
  lambda( 61)=  1.000000000000
  lambda( 62)=  1.000000000000
  lambda( 63)=  1.000000000000
  lambda( 64)=  1.000000000000
  lambda( 65)=  1.000000000000
  lambda( 66)=  1.000000000000
  lambda( 67)=  1.000000000000
  lambda( 68)=  1.000000000000
  lambda( 69)=  1.000000000000
  lambda( 70)=  1.000000000000
  lambda( 71)=  1.000000000000
  lambda( 72)=  1.000000000000

 K-point   3 ndimwin:  72 we want the 13 leading eigenvector(s) of QPQ
  lambda(  1)=  0.000000000000
  lambda(  2)=  0.000000000000
  lambda(  3)=  0.000000000000
  lambda(  4)=  0.000000000000
  lambda(  5)=  0.000000000000
  lambda(  6)=  0.000000000000
  lambda(  7)=  0.000000000000
  lambda(  8)=  0.000000000000
  lambda(  9)=  0.000000000000
  lambda( 10)=  0.000000000000
  lambda( 11)=  0.000000000000
  lambda( 12)=  0.000000000000
  lambda( 13)=  0.000000000000
  lambda( 14)=  0.000000000000
  lambda( 15)=  0.000000000000
  lambda( 16)=  0.000000000000
  lambda( 17)=  0.000000000000
  lambda( 18)=  0.000000000000
  lambda( 19)=  0.000000000000
  lambda( 20)=  0.000000000000
  lambda( 21)=  0.000000000000
  lambda( 22)=  0.000000000000
  lambda( 23)=  0.000000000000
  lambda( 24)=  0.000000000000
  lambda( 25)=  0.000000000000
  lambda( 26)=  0.000000000000
  lambda( 27)=  0.000000000000
  lambda( 28)=  0.000000000000
  lambda( 29)=  0.000000000000
  lambda( 30)=  0.000000000000
  lambda( 31)=  0.000000000000
  lambda( 32)=  0.000000000000
  lambda( 33)=  0.000000000000
  lambda( 34)=  0.000000000000
  lambda( 35)=  0.000000000000
  lambda( 36)=  0.000000000000
  lambda( 37)=  0.000000000000
  lambda( 38)=  0.000000000000
  lambda( 39)=  0.000000000000
  lambda( 40)=  0.000000000000
  lambda( 41)=  0.000000000000
  lambda( 42)=  0.000000000000
  lambda( 43)=  0.000000000000
  lambda( 44)=  0.000000000000
  lambda( 45)=  0.000000000000
  lambda( 46)=  0.000000000000
  lambda( 47)=  0.000000000000
  lambda( 48)=  0.000000000000
  lambda( 49)=  0.000000000000
  lambda( 50)=  0.000000000000
  lambda( 51)=  0.000000000000
  lambda( 52)=  0.180253392750
  lambda( 53)=  0.185241944188
  lambda( 54)=  0.194334167240
  lambda( 55)=  0.226464170666
  lambda( 56)=  0.273861361239
  lambda( 57)=  0.275027587880
  lambda( 58)=  0.358691653780
  lambda( 59)=  0.404395358073
  lambda( 60)=  1.000000000000
  lambda( 61)=  1.000000000000
  lambda( 62)=  1.000000000000
  lambda( 63)=  1.000000000000
  lambda( 64)=  1.000000000000
  lambda( 65)=  1.000000000000
  lambda( 66)=  1.000000000000
  lambda( 67)=  1.000000000000
  lambda( 68)=  1.000000000000
  lambda( 69)=  1.000000000000
  lambda( 70)=  1.000000000000
  lambda( 71)=  1.000000000000
  lambda( 72)=  1.000000000000

 K-point   4 ndimwin:  72 we want the 13 leading eigenvector(s) of QPQ
  lambda(  1)=  0.000000000000
  lambda(  2)=  0.000000000000
  lambda(  3)=  0.000000000000
  lambda(  4)=  0.000000000000
  lambda(  5)=  0.000000000000
  lambda(  6)=  0.000000000000
  lambda(  7)=  0.000000000000
  lambda(  8)=  0.000000000000
  lambda(  9)=  0.000000000000
  lambda( 10)=  0.000000000000
  lambda( 11)=  0.000000000000
  lambda( 12)=  0.000000000000
  lambda( 13)=  0.000000000000
  lambda( 14)=  0.000000000000
  lambda( 15)=  0.000000000000
  lambda( 16)=  0.000000000000
  lambda( 17)=  0.000000000000
  lambda( 18)=  0.000000000000
  lambda( 19)=  0.000000000000
  lambda( 20)=  0.000000000000
  lambda( 21)=  0.000000000000
  lambda( 22)=  0.000000000000
  lambda( 23)=  0.000000000000
  lambda( 24)=  0.000000000000
  lambda( 25)=  0.000000000000
  lambda( 26)=  0.000000000000
  lambda( 27)=  0.000000000000
  lambda( 28)=  0.000000000000
  lambda( 29)=  0.000000000000
  lambda( 30)=  0.000000000000
  lambda( 31)=  0.000000000000
  lambda( 32)=  0.000000000000
  lambda( 33)=  0.000000000000
  lambda( 34)=  0.000000000000
  lambda( 35)=  0.000000000000
  lambda( 36)=  0.000000000000
  lambda( 37)=  0.000000000000
  lambda( 38)=  0.000000000000
  lambda( 39)=  0.000000000000
  lambda( 40)=  0.000000000000
  lambda( 41)=  0.000000000000
  lambda( 42)=  0.000000000000
  lambda( 43)=  0.000000000000
  lambda( 44)=  0.000000000000
  lambda( 45)=  0.000000000000
  lambda( 46)=  0.000000000000
  lambda( 47)=  0.000000000000
  lambda( 48)=  0.000000000000
  lambda( 49)=  0.000000000000
  lambda( 50)=  0.000000000000
  lambda( 51)=  0.000000000000
  lambda( 52)=  0.167108194086
  lambda( 53)=  0.173157719180
  lambda( 54)=  0.185821387957
  lambda( 55)=  0.188605640344
  lambda( 56)=  0.261397622669
  lambda( 57)=  0.262153032710
  lambda( 58)=  0.378936473501
  lambda( 59)=  0.380128479273
  lambda( 60)=  1.000000000000
  lambda( 61)=  1.000000000000
  lambda( 62)=  1.000000000000
  lambda( 63)=  1.000000000000
  lambda( 64)=  1.000000000000
  lambda( 65)=  1.000000000000
  lambda( 66)=  1.000000000000
  lambda( 67)=  1.000000000000
  lambda( 68)=  1.000000000000
  lambda( 69)=  1.000000000000
  lambda( 70)=  1.000000000000
  lambda( 71)=  1.000000000000
  lambda( 72)=  1.000000000000

 K-point   5 ndimwin:  72 we want the 13 leading eigenvector(s) of QPQ
  lambda(  1)=  0.000000000000
  lambda(  2)=  0.000000000000
  lambda(  3)=  0.000000000000
  lambda(  4)=  0.000000000000
  lambda(  5)=  0.000000000000
  lambda(  6)=  0.000000000000
  lambda(  7)=  0.000000000000
  lambda(  8)=  0.000000000000
  lambda(  9)=  0.000000000000
  lambda( 10)=  0.000000000000
  lambda( 11)=  0.000000000000
  lambda( 12)=  0.000000000000
  lambda( 13)=  0.000000000000
  lambda( 14)=  0.000000000000
  lambda( 15)=  0.000000000000
  lambda( 16)=  0.000000000000
  lambda( 17)=  0.000000000000
  lambda( 18)=  0.000000000000
  lambda( 19)=  0.000000000000
  lambda( 20)=  0.000000000000
  lambda( 21)=  0.000000000000
  lambda( 22)=  0.000000000000
  lambda( 23)=  0.000000000000
  lambda( 24)=  0.000000000000
  lambda( 25)=  0.000000000000
  lambda( 26)=  0.000000000000
  lambda( 27)=  0.000000000000
  lambda( 28)=  0.000000000000
  lambda( 29)=  0.000000000000
  lambda( 30)=  0.000000000000
  lambda( 31)=  0.000000000000
  lambda( 32)=  0.000000000000
  lambda( 33)=  0.000000000000
  lambda( 34)=  0.000000000000
  lambda( 35)=  0.000000000000
  lambda( 36)=  0.000000000000
  lambda( 37)=  0.000000000000
  lambda( 38)=  0.000000000000
  lambda( 39)=  0.000000000000
  lambda( 40)=  0.000000000000
  lambda( 41)=  0.000000000000
  lambda( 42)=  0.000000000000
  lambda( 43)=  0.000000000000
  lambda( 44)=  0.000000000000
  lambda( 45)=  0.000000000000
  lambda( 46)=  0.000000000000
  lambda( 47)=  0.000000000000
  lambda( 48)=  0.000000000000
  lambda( 49)=  0.000000000000
  lambda( 50)=  0.000000000000
  lambda( 51)=  0.000000000000
  lambda( 52)=  0.180253379251
  lambda( 53)=  0.185241953898
  lambda( 54)=  0.194334041174
  lambda( 55)=  0.226464214685
  lambda( 56)=  0.273861390360
  lambda( 57)=  0.275027620107
  lambda( 58)=  0.358691650052
  lambda( 59)=  0.404395357644
  lambda( 60)=  1.000000000000
  lambda( 61)=  1.000000000000
  lambda( 62)=  1.000000000000
  lambda( 63)=  1.000000000000
  lambda( 64)=  1.000000000000
  lambda( 65)=  1.000000000000
  lambda( 66)=  1.000000000000
  lambda( 67)=  1.000000000000
  lambda( 68)=  1.000000000000
  lambda( 69)=  1.000000000000
  lambda( 70)=  1.000000000000
  lambda( 71)=  1.000000000000
  lambda( 72)=  1.000000000000

 K-point   6 ndimwin:  72 we want the 13 leading eigenvector(s) of QPQ
  lambda(  1)=  0.000000000000
  lambda(  2)=  0.000000000000
  lambda(  3)=  0.000000000000
  lambda(  4)=  0.000000000000
  lambda(  5)=  0.000000000000
  lambda(  6)=  0.000000000000
  lambda(  7)=  0.000000000000
  lambda(  8)=  0.000000000000
  lambda(  9)=  0.000000000000
  lambda( 10)=  0.000000000000
  lambda( 11)=  0.000000000000
  lambda( 12)=  0.000000000000
  lambda( 13)=  0.000000000000
  lambda( 14)=  0.000000000000
  lambda( 15)=  0.000000000000
  lambda( 16)=  0.000000000000
  lambda( 17)=  0.000000000000
  lambda( 18)=  0.000000000000
  lambda( 19)=  0.000000000000
  lambda( 20)=  0.000000000000
  lambda( 21)=  0.000000000000
  lambda( 22)=  0.000000000000
  lambda( 23)=  0.000000000000
  lambda( 24)=  0.000000000000
  lambda( 25)=  0.000000000000
  lambda( 26)=  0.000000000000
  lambda( 27)=  0.000000000000
  lambda( 28)=  0.000000000000
  lambda( 29)=  0.000000000000
  lambda( 30)=  0.000000000000
  lambda( 31)=  0.000000000000
  lambda( 32)=  0.000000000000
  lambda( 33)=  0.000000000000
  lambda( 34)=  0.000000000000
  lambda( 35)=  0.000000000000
  lambda( 36)=  0.000000000000
  lambda( 37)=  0.000000000000
  lambda( 38)=  0.000000000000
  lambda( 39)=  0.000000000000
  lambda( 40)=  0.000000000000
  lambda( 41)=  0.000000000000
  lambda( 42)=  0.000000000000
  lambda( 43)=  0.000000000000
  lambda( 44)=  0.000000000000
  lambda( 45)=  0.000000000000
  lambda( 46)=  0.000000000000
  lambda( 47)=  0.000000000000
  lambda( 48)=  0.000000000000
  lambda( 49)=  0.000000000000
  lambda( 50)=  0.000000000000
  lambda( 51)=  0.000000000000
  lambda( 52)=  0.196824335868
  lambda( 53)=  0.200348665477
  lambda( 54)=  0.203521757435
  lambda( 55)=  0.310864755392
  lambda( 56)=  0.311787046081
  lambda( 57)=  0.344944739329
  lambda( 58)=  0.354772999653
  lambda( 59)=  0.427412798103
  lambda( 60)=  1.000000000000
  lambda( 61)=  1.000000000000
  lambda( 62)=  1.000000000000
  lambda( 63)=  1.000000000000
  lambda( 64)=  1.000000000000
  lambda( 65)=  1.000000000000
  lambda( 66)=  1.000000000000
  lambda( 67)=  1.000000000000
  lambda( 68)=  1.000000000000
  lambda( 69)=  1.000000000000
  lambda( 70)=  1.000000000000
  lambda( 71)=  1.000000000000
  lambda( 72)=  1.000000000000

 K-point   7 ndimwin:  72 we want the 13 leading eigenvector(s) of QPQ
  lambda(  1)=  0.000000000000
  lambda(  2)=  0.000000000000
  lambda(  3)=  0.000000000000
  lambda(  4)=  0.000000000000
  lambda(  5)=  0.000000000000
  lambda(  6)=  0.000000000000
  lambda(  7)=  0.000000000000
  lambda(  8)=  0.000000000000
  lambda(  9)=  0.000000000000
  lambda( 10)=  0.000000000000
  lambda( 11)=  0.000000000000
  lambda( 12)=  0.000000000000
  lambda( 13)=  0.000000000000
  lambda( 14)=  0.000000000000
  lambda( 15)=  0.000000000000
  lambda( 16)=  0.000000000000
  lambda( 17)=  0.000000000000
  lambda( 18)=  0.000000000000
  lambda( 19)=  0.000000000000
  lambda( 20)=  0.000000000000
  lambda( 21)=  0.000000000000
  lambda( 22)=  0.000000000000
  lambda( 23)=  0.000000000000
  lambda( 24)=  0.000000000000
  lambda( 25)=  0.000000000000
  lambda( 26)=  0.000000000000
  lambda( 27)=  0.000000000000
  lambda( 28)=  0.000000000000
  lambda( 29)=  0.000000000000
  lambda( 30)=  0.000000000000
  lambda( 31)=  0.000000000000
  lambda( 32)=  0.000000000000
  lambda( 33)=  0.000000000000
  lambda( 34)=  0.000000000000
  lambda( 35)=  0.000000000000
  lambda( 36)=  0.000000000000
  lambda( 37)=  0.000000000000
  lambda( 38)=  0.000000000000
  lambda( 39)=  0.000000000000
  lambda( 40)=  0.000000000000
  lambda( 41)=  0.000000000000
  lambda( 42)=  0.000000000000
  lambda( 43)=  0.000000000000
  lambda( 44)=  0.000000000000
  lambda( 45)=  0.000000000000
  lambda( 46)=  0.000000000000
  lambda( 47)=  0.000000000000
  lambda( 48)=  0.000000000000
  lambda( 49)=  0.000000000000
  lambda( 50)=  0.000000000000
  lambda( 51)=  0.000000000000
  lambda( 52)=  0.196823508386
  lambda( 53)=  0.200349290517
  lambda( 54)=  0.203521923213
  lambda( 55)=  0.310864311420
  lambda( 56)=  0.311787536477
  lambda( 57)=  0.344944825828
  lambda( 58)=  0.354772824166
  lambda( 59)=  0.427412817570
  lambda( 60)=  1.000000000000
  lambda( 61)=  1.000000000000
  lambda( 62)=  1.000000000000
  lambda( 63)=  1.000000000000
  lambda( 64)=  1.000000000000
  lambda( 65)=  1.000000000000
  lambda( 66)=  1.000000000000
  lambda( 67)=  1.000000000000
  lambda( 68)=  1.000000000000
  lambda( 69)=  1.000000000000
  lambda( 70)=  1.000000000000
  lambda( 71)=  1.000000000000
  lambda( 72)=  1.000000000000

 K-point   8 ndimwin:  72 we want the 13 leading eigenvector(s) of QPQ
  lambda(  1)=  0.000000000000
  lambda(  2)=  0.000000000000
  lambda(  3)=  0.000000000000
  lambda(  4)=  0.000000000000
  lambda(  5)=  0.000000000000
  lambda(  6)=  0.000000000000
  lambda(  7)=  0.000000000000
  lambda(  8)=  0.000000000000
  lambda(  9)=  0.000000000000
  lambda( 10)=  0.000000000000
  lambda( 11)=  0.000000000000
  lambda( 12)=  0.000000000000
  lambda( 13)=  0.000000000000
  lambda( 14)=  0.000000000000
  lambda( 15)=  0.000000000000
  lambda( 16)=  0.000000000000
  lambda( 17)=  0.000000000000
  lambda( 18)=  0.000000000000
  lambda( 19)=  0.000000000000
  lambda( 20)=  0.000000000000
  lambda( 21)=  0.000000000000
  lambda( 22)=  0.000000000000
  lambda( 23)=  0.000000000000
  lambda( 24)=  0.000000000000
  lambda( 25)=  0.000000000000
  lambda( 26)=  0.000000000000
  lambda( 27)=  0.000000000000
  lambda( 28)=  0.000000000000
  lambda( 29)=  0.000000000000
  lambda( 30)=  0.000000000000
  lambda( 31)=  0.000000000000
  lambda( 32)=  0.000000000000
  lambda( 33)=  0.000000000000
  lambda( 34)=  0.000000000000
  lambda( 35)=  0.000000000000
  lambda( 36)=  0.000000000000
  lambda( 37)=  0.000000000000
  lambda( 38)=  0.000000000000
  lambda( 39)=  0.000000000000
  lambda( 40)=  0.000000000000
  lambda( 41)=  0.000000000000
  lambda( 42)=  0.000000000000
  lambda( 43)=  0.000000000000
  lambda( 44)=  0.000000000000
  lambda( 45)=  0.000000000000
  lambda( 46)=  0.000000000000
  lambda( 47)=  0.000000000000
  lambda( 48)=  0.000000000000
  lambda( 49)=  0.000000000000
  lambda( 50)=  0.000000000000
  lambda( 51)=  0.000000000000
  lambda( 52)=  0.188093378024
  lambda( 53)=  0.190221905368
  lambda( 54)=  0.193872058535
  lambda( 55)=  0.251062201912
  lambda( 56)=  0.262963676974
  lambda( 57)=  0.325186235342
  lambda( 58)=  0.327406278379
  lambda( 59)=  0.406475533113
  lambda( 60)=  1.000000000000
  lambda( 61)=  1.000000000000
  lambda( 62)=  1.000000000000
  lambda( 63)=  1.000000000000
  lambda( 64)=  1.000000000000
  lambda( 65)=  1.000000000000
  lambda( 66)=  1.000000000000
  lambda( 67)=  1.000000000000
  lambda( 68)=  1.000000000000
  lambda( 69)=  1.000000000000
  lambda( 70)=  1.000000000000
  lambda( 71)=  1.000000000000
  lambda( 72)=  1.000000000000

 K-point   9 ndimwin:  72 we want the 13 leading eigenvector(s) of QPQ
  lambda(  1)=  0.000000000000
  lambda(  2)=  0.000000000000
  lambda(  3)=  0.000000000000
  lambda(  4)=  0.000000000000
  lambda(  5)=  0.000000000000
  lambda(  6)=  0.000000000000
  lambda(  7)=  0.000000000000
  lambda(  8)=  0.000000000000
  lambda(  9)=  0.000000000000
  lambda( 10)=  0.000000000000
  lambda( 11)=  0.000000000000
  lambda( 12)=  0.000000000000
  lambda( 13)=  0.000000000000
  lambda( 14)=  0.000000000000
  lambda( 15)=  0.000000000000
  lambda( 16)=  0.000000000000
  lambda( 17)=  0.000000000000
  lambda( 18)=  0.000000000000
  lambda( 19)=  0.000000000000
  lambda( 20)=  0.000000000000
  lambda( 21)=  0.000000000000
  lambda( 22)=  0.000000000000
  lambda( 23)=  0.000000000000
  lambda( 24)=  0.000000000000
  lambda( 25)=  0.000000000000
  lambda( 26)=  0.000000000000
  lambda( 27)=  0.000000000000
  lambda( 28)=  0.000000000000
  lambda( 29)=  0.000000000000
  lambda( 30)=  0.000000000000
  lambda( 31)=  0.000000000000
  lambda( 32)=  0.000000000000
  lambda( 33)=  0.000000000000
  lambda( 34)=  0.000000000000
  lambda( 35)=  0.000000000000
  lambda( 36)=  0.000000000000
  lambda( 37)=  0.000000000000
  lambda( 38)=  0.000000000000
  lambda( 39)=  0.000000000000
  lambda( 40)=  0.000000000000
  lambda( 41)=  0.000000000000
  lambda( 42)=  0.000000000000
  lambda( 43)=  0.000000000000
  lambda( 44)=  0.000000000000
  lambda( 45)=  0.000000000000
  lambda( 46)=  0.000000000000
  lambda( 47)=  0.000000000000
  lambda( 48)=  0.000000000000
  lambda( 49)=  0.000000000000
  lambda( 50)=  0.000000000000
  lambda( 51)=  0.000000000000
  lambda( 52)=  0.160370373278
  lambda( 53)=  0.172838137439
  lambda( 54)=  0.176796576304
  lambda( 55)=  0.189073598883
  lambda( 56)=  0.234957302899
  lambda( 57)=  0.302538514754
  lambda( 58)=  0.350029535150
  lambda( 59)=  0.377418612148
  lambda( 60)=  1.000000000000
  lambda( 61)=  1.000000000000
  lambda( 62)=  1.000000000000
  lambda( 63)=  1.000000000000
  lambda( 64)=  1.000000000000
  lambda( 65)=  1.000000000000
  lambda( 66)=  1.000000000000
  lambda( 67)=  1.000000000000
  lambda( 68)=  1.000000000000
  lambda( 69)=  1.000000000000
  lambda( 70)=  1.000000000000
  lambda( 71)=  1.000000000000
  lambda( 72)=  1.000000000000

 K-point  10 ndimwin:  72 we want the 13 leading eigenvector(s) of QPQ
  lambda(  1)=  0.000000000000
  lambda(  2)=  0.000000000000
  lambda(  3)=  0.000000000000
  lambda(  4)=  0.000000000000
  lambda(  5)=  0.000000000000
  lambda(  6)=  0.000000000000
  lambda(  7)=  0.000000000000
  lambda(  8)=  0.000000000000
  lambda(  9)=  0.000000000000
  lambda( 10)=  0.000000000000
  lambda( 11)=  0.000000000000
  lambda( 12)=  0.000000000000
  lambda( 13)=  0.000000000000
  lambda( 14)=  0.000000000000
  lambda( 15)=  0.000000000000
  lambda( 16)=  0.000000000000
  lambda( 17)=  0.000000000000
  lambda( 18)=  0.000000000000
  lambda( 19)=  0.000000000000
  lambda( 20)=  0.000000000000
  lambda( 21)=  0.000000000000
  lambda( 22)=  0.000000000000
  lambda( 23)=  0.000000000000
  lambda( 24)=  0.000000000000
  lambda( 25)=  0.000000000000
  lambda( 26)=  0.000000000000
  lambda( 27)=  0.000000000000
  lambda( 28)=  0.000000000000
  lambda( 29)=  0.000000000000
  lambda( 30)=  0.000000000000
  lambda( 31)=  0.000000000000
  lambda( 32)=  0.000000000000
  lambda( 33)=  0.000000000000
  lambda( 34)=  0.000000000000
  lambda( 35)=  0.000000000000
  lambda( 36)=  0.000000000000
  lambda( 37)=  0.000000000000
  lambda( 38)=  0.000000000000
  lambda( 39)=  0.000000000000
  lambda( 40)=  0.000000000000
  lambda( 41)=  0.000000000000
  lambda( 42)=  0.000000000000
  lambda( 43)=  0.000000000000
  lambda( 44)=  0.000000000000
  lambda( 45)=  0.000000000000
  lambda( 46)=  0.000000000000
  lambda( 47)=  0.000000000000
  lambda( 48)=  0.000000000000
  lambda( 49)=  0.000000000000
  lambda( 50)=  0.000000000000
  lambda( 51)=  0.000000000000
  lambda( 52)=  0.159991548139
  lambda( 53)=  0.173004733765
  lambda( 54)=  0.176820812361
  lambda( 55)=  0.189463019763
  lambda( 56)=  0.234789770319
  lambda( 57)=  0.302496075083
  lambda( 58)=  0.350004502700
  lambda( 59)=  0.377416925593
  lambda( 60)=  1.000000000000
  lambda( 61)=  1.000000000000
  lambda( 62)=  1.000000000000
  lambda( 63)=  1.000000000000
  lambda( 64)=  1.000000000000
  lambda( 65)=  1.000000000000
  lambda( 66)=  1.000000000000
  lambda( 67)=  1.000000000000
  lambda( 68)=  1.000000000000
  lambda( 69)=  1.000000000000
  lambda( 70)=  1.000000000000
  lambda( 71)=  1.000000000000
  lambda( 72)=  1.000000000000

 K-point  11 ndimwin:  72 we want the 13 leading eigenvector(s) of QPQ
  lambda(  1)=  0.000000000000
  lambda(  2)=  0.000000000000
  lambda(  3)=  0.000000000000
  lambda(  4)=  0.000000000000
  lambda(  5)=  0.000000000000
  lambda(  6)=  0.000000000000
  lambda(  7)=  0.000000000000
  lambda(  8)=  0.000000000000
  lambda(  9)=  0.000000000000
  lambda( 10)=  0.000000000000
  lambda( 11)=  0.000000000000
  lambda( 12)=  0.000000000000
  lambda( 13)=  0.000000000000
  lambda( 14)=  0.000000000000
  lambda( 15)=  0.000000000000
  lambda( 16)=  0.000000000000
  lambda( 17)=  0.000000000000
  lambda( 18)=  0.000000000000
  lambda( 19)=  0.000000000000
  lambda( 20)=  0.000000000000
  lambda( 21)=  0.000000000000
  lambda( 22)=  0.000000000000
  lambda( 23)=  0.000000000000
  lambda( 24)=  0.000000000000
  lambda( 25)=  0.000000000000
  lambda( 26)=  0.000000000000
  lambda( 27)=  0.000000000000
  lambda( 28)=  0.000000000000
  lambda( 29)=  0.000000000000
  lambda( 30)=  0.000000000000
  lambda( 31)=  0.000000000000
  lambda( 32)=  0.000000000000
  lambda( 33)=  0.000000000000
  lambda( 34)=  0.000000000000
  lambda( 35)=  0.000000000000
  lambda( 36)=  0.000000000000
  lambda( 37)=  0.000000000000
  lambda( 38)=  0.000000000000
  lambda( 39)=  0.000000000000
  lambda( 40)=  0.000000000000
  lambda( 41)=  0.000000000000
  lambda( 42)=  0.000000000000
  lambda( 43)=  0.000000000000
  lambda( 44)=  0.000000000000
  lambda( 45)=  0.000000000000
  lambda( 46)=  0.000000000000
  lambda( 47)=  0.000000000000
  lambda( 48)=  0.000000000000
  lambda( 49)=  0.000000000000
  lambda( 50)=  0.000000000000
  lambda( 51)=  0.000000000000
  lambda( 52)=  0.188098620010
  lambda( 53)=  0.190223604570
  lambda( 54)=  0.193871941638
  lambda( 55)=  0.251073975259
  lambda( 56)=  0.262959590863
  lambda( 57)=  0.325183846175
  lambda( 58)=  0.327403199224
  lambda( 59)=  0.406463380920
  lambda( 60)=  1.000000000000
  lambda( 61)=  1.000000000000
  lambda( 62)=  1.000000000000
  lambda( 63)=  1.000000000000
  lambda( 64)=  1.000000000000
  lambda( 65)=  1.000000000000
  lambda( 66)=  1.000000000000
  lambda( 67)=  1.000000000000
  lambda( 68)=  1.000000000000
  lambda( 69)=  1.000000000000
  lambda( 70)=  1.000000000000
  lambda( 71)=  1.000000000000
  lambda( 72)=  1.000000000000

 K-point  12 ndimwin:  72 we want the 13 leading eigenvector(s) of QPQ
  lambda(  1)=  0.000000000000
  lambda(  2)=  0.000000000000
  lambda(  3)=  0.000000000000
  lambda(  4)=  0.000000000000
  lambda(  5)=  0.000000000000
  lambda(  6)=  0.000000000000
  lambda(  7)=  0.000000000000
  lambda(  8)=  0.000000000000
  lambda(  9)=  0.000000000000
  lambda( 10)=  0.000000000000
  lambda( 11)=  0.000000000000
  lambda( 12)=  0.000000000000
  lambda( 13)=  0.000000000000
  lambda( 14)=  0.000000000000
  lambda( 15)=  0.000000000000
  lambda( 16)=  0.000000000000
  lambda( 17)=  0.000000000000
  lambda( 18)=  0.000000000000
  lambda( 19)=  0.000000000000
  lambda( 20)=  0.000000000000
  lambda( 21)=  0.000000000000
  lambda( 22)=  0.000000000000
  lambda( 23)=  0.000000000000
  lambda( 24)=  0.000000000000
  lambda( 25)=  0.000000000000
  lambda( 26)=  0.000000000000
  lambda( 27)=  0.000000000000
  lambda( 28)=  0.000000000000
  lambda( 29)=  0.000000000000
  lambda( 30)=  0.000000000000
  lambda( 31)=  0.000000000000
  lambda( 32)=  0.000000000000
  lambda( 33)=  0.000000000000
  lambda( 34)=  0.000000000000
  lambda( 35)=  0.000000000000
  lambda( 36)=  0.000000000000
  lambda( 37)=  0.000000000000
  lambda( 38)=  0.000000000000
  lambda( 39)=  0.000000000000
  lambda( 40)=  0.000000000000
  lambda( 41)=  0.000000000000
  lambda( 42)=  0.000000000000
  lambda( 43)=  0.000000000000
  lambda( 44)=  0.000000000000
  lambda( 45)=  0.000000000000
  lambda( 46)=  0.000000000000
  lambda( 47)=  0.000000000000
  lambda( 48)=  0.000000000000
  lambda( 49)=  0.000000000000
  lambda( 50)=  0.000000000000
  lambda( 51)=  0.000000000000
  lambda( 52)=  0.196821778299
  lambda( 53)=  0.200347054731
  lambda( 54)=  0.203528788583
  lambda( 55)=  0.310864547290
  lambda( 56)=  0.311787425642
  lambda( 57)=  0.344940172990
  lambda( 58)=  0.354787586501
  lambda( 59)=  0.427398052814
  lambda( 60)=  1.000000000000
  lambda( 61)=  1.000000000000
  lambda( 62)=  1.000000000000
  lambda( 63)=  1.000000000000
  lambda( 64)=  1.000000000000
  lambda( 65)=  1.000000000000
  lambda( 66)=  1.000000000000
  lambda( 67)=  1.000000000000
  lambda( 68)=  1.000000000000
  lambda( 69)=  1.000000000000
  lambda( 70)=  1.000000000000
  lambda( 71)=  1.000000000000
  lambda( 72)=  1.000000000000

 K-point  13 ndimwin:  72 we want the 13 leading eigenvector(s) of QPQ
  lambda(  1)=  0.000000000000
  lambda(  2)=  0.000000000000
  lambda(  3)=  0.000000000000
  lambda(  4)=  0.000000000000
  lambda(  5)=  0.000000000000
  lambda(  6)=  0.000000000000
  lambda(  7)=  0.000000000000
  lambda(  8)=  0.000000000000
  lambda(  9)=  0.000000000000
  lambda( 10)=  0.000000000000
  lambda( 11)=  0.000000000000
  lambda( 12)=  0.000000000000
  lambda( 13)=  0.000000000000
  lambda( 14)=  0.000000000000
  lambda( 15)=  0.000000000000
  lambda( 16)=  0.000000000000
  lambda( 17)=  0.000000000000
  lambda( 18)=  0.000000000000
  lambda( 19)=  0.000000000000
  lambda( 20)=  0.000000000000
  lambda( 21)=  0.000000000000
  lambda( 22)=  0.000000000000
  lambda( 23)=  0.000000000000
  lambda( 24)=  0.000000000000
  lambda( 25)=  0.000000000000
  lambda( 26)=  0.000000000000
  lambda( 27)=  0.000000000000
  lambda( 28)=  0.000000000000
  lambda( 29)=  0.000000000000
  lambda( 30)=  0.000000000000
  lambda( 31)=  0.000000000000
  lambda( 32)=  0.000000000000
  lambda( 33)=  0.000000000000
  lambda( 34)=  0.000000000000
  lambda( 35)=  0.000000000000
  lambda( 36)=  0.000000000000
  lambda( 37)=  0.000000000000
  lambda( 38)=  0.000000000000
  lambda( 39)=  0.000000000000
  lambda( 40)=  0.000000000000
  lambda( 41)=  0.000000000000
  lambda( 42)=  0.000000000000
  lambda( 43)=  0.000000000000
  lambda( 44)=  0.000000000000
  lambda( 45)=  0.000000000000
  lambda( 46)=  0.000000000000
  lambda( 47)=  0.000000000000
  lambda( 48)=  0.000000000000
  lambda( 49)=  0.000000000000
  lambda( 50)=  0.000000000000
  lambda( 51)=  0.000000000000
  lambda( 52)=  0.180252103688
  lambda( 53)=  0.185242742034
  lambda( 54)=  0.194334539806
  lambda( 55)=  0.226464213730
  lambda( 56)=  0.273860731506
  lambda( 57)=  0.275028058823
  lambda( 58)=  0.358691616052
  lambda( 59)=  0.404395354722
  lambda( 60)=  1.000000000000
  lambda( 61)=  1.000000000000
  lambda( 62)=  1.000000000000
  lambda( 63)=  1.000000000000
  lambda( 64)=  1.000000000000
  lambda( 65)=  1.000000000000
  lambda( 66)=  1.000000000000
  lambda( 67)=  1.000000000000
  lambda( 68)=  1.000000000000
  lambda( 69)=  1.000000000000
  lambda( 70)=  1.000000000000
  lambda( 71)=  1.000000000000
  lambda( 72)=  1.000000000000

 K-point  14 ndimwin:  72 we want the 13 leading eigenvector(s) of QPQ
  lambda(  1)=  0.000000000000
  lambda(  2)=  0.000000000000
  lambda(  3)=  0.000000000000
  lambda(  4)=  0.000000000000
  lambda(  5)=  0.000000000000
  lambda(  6)=  0.000000000000
  lambda(  7)=  0.000000000000
  lambda(  8)=  0.000000000000
  lambda(  9)=  0.000000000000
  lambda( 10)=  0.000000000000
  lambda( 11)=  0.000000000000
  lambda( 12)=  0.000000000000
  lambda( 13)=  0.000000000000
  lambda( 14)=  0.000000000000
  lambda( 15)=  0.000000000000
  lambda( 16)=  0.000000000000
  lambda( 17)=  0.000000000000
  lambda( 18)=  0.000000000000
  lambda( 19)=  0.000000000000
  lambda( 20)=  0.000000000000
  lambda( 21)=  0.000000000000
  lambda( 22)=  0.000000000000
  lambda( 23)=  0.000000000000
  lambda( 24)=  0.000000000000
  lambda( 25)=  0.000000000000
  lambda( 26)=  0.000000000000
  lambda( 27)=  0.000000000000
  lambda( 28)=  0.000000000000
  lambda( 29)=  0.000000000000
  lambda( 30)=  0.000000000000
  lambda( 31)=  0.000000000000
  lambda( 32)=  0.000000000000
  lambda( 33)=  0.000000000000
  lambda( 34)=  0.000000000000
  lambda( 35)=  0.000000000000
  lambda( 36)=  0.000000000000
  lambda( 37)=  0.000000000000
  lambda( 38)=  0.000000000000
  lambda( 39)=  0.000000000000
  lambda( 40)=  0.000000000000
  lambda( 41)=  0.000000000000
  lambda( 42)=  0.000000000000
  lambda( 43)=  0.000000000000
  lambda( 44)=  0.000000000000
  lambda( 45)=  0.000000000000
  lambda( 46)=  0.000000000000
  lambda( 47)=  0.000000000000
  lambda( 48)=  0.000000000000
  lambda( 49)=  0.000000000000
  lambda( 50)=  0.000000000000
  lambda( 51)=  0.000000000000
  lambda( 52)=  0.159988784829
  lambda( 53)=  0.173004619372
  lambda( 54)=  0.176816857302
  lambda( 55)=  0.189462007737
  lambda( 56)=  0.234792944116
  lambda( 57)=  0.302497381027
  lambda( 58)=  0.350003479853
  lambda( 59)=  0.377422255390
  lambda( 60)=  1.000000000000
  lambda( 61)=  1.000000000000
  lambda( 62)=  1.000000000000
  lambda( 63)=  1.000000000000
  lambda( 64)=  1.000000000000
  lambda( 65)=  1.000000000000
  lambda( 66)=  1.000000000000
  lambda( 67)=  1.000000000000
  lambda( 68)=  1.000000000000
  lambda( 69)=  1.000000000000
  lambda( 70)=  1.000000000000
  lambda( 71)=  1.000000000000
  lambda( 72)=  1.000000000000

 K-point  15 ndimwin:  72 we want the 13 leading eigenvector(s) of QPQ
  lambda(  1)=  0.000000000000
  lambda(  2)=  0.000000000000
  lambda(  3)=  0.000000000000
  lambda(  4)=  0.000000000000
  lambda(  5)=  0.000000000000
  lambda(  6)=  0.000000000000
  lambda(  7)=  0.000000000000
  lambda(  8)=  0.000000000000
  lambda(  9)=  0.000000000000
  lambda( 10)=  0.000000000000
  lambda( 11)=  0.000000000000
  lambda( 12)=  0.000000000000
  lambda( 13)=  0.000000000000
  lambda( 14)=  0.000000000000
  lambda( 15)=  0.000000000000
  lambda( 16)=  0.000000000000
  lambda( 17)=  0.000000000000
  lambda( 18)=  0.000000000000
  lambda( 19)=  0.000000000000
  lambda( 20)=  0.000000000000
  lambda( 21)=  0.000000000000
  lambda( 22)=  0.000000000000
  lambda( 23)=  0.000000000000
  lambda( 24)=  0.000000000000
  lambda( 25)=  0.000000000000
  lambda( 26)=  0.000000000000
  lambda( 27)=  0.000000000000
  lambda( 28)=  0.000000000000
  lambda( 29)=  0.000000000000
  lambda( 30)=  0.000000000000
  lambda( 31)=  0.000000000000
  lambda( 32)=  0.000000000000
  lambda( 33)=  0.000000000000
  lambda( 34)=  0.000000000000
  lambda( 35)=  0.000000000000
  lambda( 36)=  0.000000000000
  lambda( 37)=  0.000000000000
  lambda( 38)=  0.000000000000
  lambda( 39)=  0.000000000000
  lambda( 40)=  0.000000000000
  lambda( 41)=  0.000000000000
  lambda( 42)=  0.000000000000
  lambda( 43)=  0.000000000000
  lambda( 44)=  0.000000000000
  lambda( 45)=  0.000000000000
  lambda( 46)=  0.000000000000
  lambda( 47)=  0.000000000000
  lambda( 48)=  0.000000000000
  lambda( 49)=  0.000000000000
  lambda( 50)=  0.000000000000
  lambda( 51)=  0.000000000000
  lambda( 52)=  0.147327543298
  lambda( 53)=  0.147490469974
  lambda( 54)=  0.149863318201
  lambda( 55)=  0.198161435284
  lambda( 56)=  0.216163442455
  lambda( 57)=  0.337203289470
  lambda( 58)=  0.338411353536
  lambda( 59)=  0.340371552693
  lambda( 60)=  1.000000000000
  lambda( 61)=  1.000000000000
  lambda( 62)=  1.000000000000
  lambda( 63)=  1.000000000000
  lambda( 64)=  1.000000000000
  lambda( 65)=  1.000000000000
  lambda( 66)=  1.000000000000
  lambda( 67)=  1.000000000000
  lambda( 68)=  1.000000000000
  lambda( 69)=  1.000000000000
  lambda( 70)=  1.000000000000
  lambda( 71)=  1.000000000000
  lambda( 72)=  1.000000000000

 K-point  16 ndimwin:  72 we want the 13 leading eigenvector(s) of QPQ
  lambda(  1)=  0.000000000000
  lambda(  2)=  0.000000000000
  lambda(  3)=  0.000000000000
  lambda(  4)=  0.000000000000
  lambda(  5)=  0.000000000000
  lambda(  6)=  0.000000000000
  lambda(  7)=  0.000000000000
  lambda(  8)=  0.000000000000
  lambda(  9)=  0.000000000000
  lambda( 10)=  0.000000000000
  lambda( 11)=  0.000000000000
  lambda( 12)=  0.000000000000
  lambda( 13)=  0.000000000000
  lambda( 14)=  0.000000000000
  lambda( 15)=  0.000000000000
  lambda( 16)=  0.000000000000
  lambda( 17)=  0.000000000000
  lambda( 18)=  0.000000000000
  lambda( 19)=  0.000000000000
  lambda( 20)=  0.000000000000
  lambda( 21)=  0.000000000000
  lambda( 22)=  0.000000000000
  lambda( 23)=  0.000000000000
  lambda( 24)=  0.000000000000
  lambda( 25)=  0.000000000000
  lambda( 26)=  0.000000000000
  lambda( 27)=  0.000000000000
  lambda( 28)=  0.000000000000
  lambda( 29)=  0.000000000000
  lambda( 30)=  0.000000000000
  lambda( 31)=  0.000000000000
  lambda( 32)=  0.000000000000
  lambda( 33)=  0.000000000000
  lambda( 34)=  0.000000000000
  lambda( 35)=  0.000000000000
  lambda( 36)=  0.000000000000
  lambda( 37)=  0.000000000000
  lambda( 38)=  0.000000000000
  lambda( 39)=  0.000000000000
  lambda( 40)=  0.000000000000
  lambda( 41)=  0.000000000000
  lambda( 42)=  0.000000000000
  lambda( 43)=  0.000000000000
  lambda( 44)=  0.000000000000
  lambda( 45)=  0.000000000000
  lambda( 46)=  0.000000000000
  lambda( 47)=  0.000000000000
  lambda( 48)=  0.000000000000
  lambda( 49)=  0.000000000000
  lambda( 50)=  0.000000000000
  lambda( 51)=  0.000000000000
  lambda( 52)=  0.160371876704
  lambda( 53)=  0.172843863001
  lambda( 54)=  0.176803601799
  lambda( 55)=  0.189079240950
  lambda( 56)=  0.234948400856
  lambda( 57)=  0.302536679188
  lambda( 58)=  0.350024955204
  lambda( 59)=  0.377409079103
  lambda( 60)=  1.000000000000
  lambda( 61)=  1.000000000000
  lambda( 62)=  1.000000000000
  lambda( 63)=  1.000000000000
  lambda( 64)=  1.000000000000
  lambda( 65)=  1.000000000000
  lambda( 66)=  1.000000000000
  lambda( 67)=  1.000000000000
  lambda( 68)=  1.000000000000
  lambda( 69)=  1.000000000000
  lambda( 70)=  1.000000000000
  lambda( 71)=  1.000000000000
  lambda( 72)=  1.000000000000

 K-point  17 ndimwin:  72 we want the 13 leading eigenvector(s) of QPQ
  lambda(  1)=  0.000000000000
  lambda(  2)=  0.000000000000
  lambda(  3)=  0.000000000000
  lambda(  4)=  0.000000000000
  lambda(  5)=  0.000000000000
  lambda(  6)=  0.000000000000
  lambda(  7)=  0.000000000000
  lambda(  8)=  0.000000000000
  lambda(  9)=  0.000000000000
  lambda( 10)=  0.000000000000
  lambda( 11)=  0.000000000000
  lambda( 12)=  0.000000000000
  lambda( 13)=  0.000000000000
  lambda( 14)=  0.000000000000
  lambda( 15)=  0.000000000000
  lambda( 16)=  0.000000000000
  lambda( 17)=  0.000000000000
  lambda( 18)=  0.000000000000
  lambda( 19)=  0.000000000000
  lambda( 20)=  0.000000000000
  lambda( 21)=  0.000000000000
  lambda( 22)=  0.000000000000
  lambda( 23)=  0.000000000000
  lambda( 24)=  0.000000000000
  lambda( 25)=  0.000000000000
  lambda( 26)=  0.000000000000
  lambda( 27)=  0.000000000000
  lambda( 28)=  0.000000000000
  lambda( 29)=  0.000000000000
  lambda( 30)=  0.000000000000
  lambda( 31)=  0.000000000000
  lambda( 32)=  0.000000000000
  lambda( 33)=  0.000000000000
  lambda( 34)=  0.000000000000
  lambda( 35)=  0.000000000000
  lambda( 36)=  0.000000000000
  lambda( 37)=  0.000000000000
  lambda( 38)=  0.000000000000
  lambda( 39)=  0.000000000000
  lambda( 40)=  0.000000000000
  lambda( 41)=  0.000000000000
  lambda( 42)=  0.000000000000
  lambda( 43)=  0.000000000000
  lambda( 44)=  0.000000000000
  lambda( 45)=  0.000000000000
  lambda( 46)=  0.000000000000
  lambda( 47)=  0.000000000000
  lambda( 48)=  0.000000000000
  lambda( 49)=  0.000000000000
  lambda( 50)=  0.000000000000
  lambda( 51)=  0.000000000000
  lambda( 52)=  0.180254717493
  lambda( 53)=  0.185243824536
  lambda( 54)=  0.194341138985
  lambda( 55)=  0.226474153403
  lambda( 56)=  0.273856758902
  lambda( 57)=  0.275024105021
  lambda( 58)=  0.358685752291
  lambda( 59)=  0.404384128892
  lambda( 60)=  1.000000000000
  lambda( 61)=  1.000000000000
  lambda( 62)=  1.000000000000
  lambda( 63)=  1.000000000000
  lambda( 64)=  1.000000000000
  lambda( 65)=  1.000000000000
  lambda( 66)=  1.000000000000
  lambda( 67)=  1.000000000000
  lambda( 68)=  1.000000000000
  lambda( 69)=  1.000000000000
  lambda( 70)=  1.000000000000
  lambda( 71)=  1.000000000000
  lambda( 72)=  1.000000000000

 K-point  18 ndimwin:  72 we want the 13 leading eigenvector(s) of QPQ
  lambda(  1)=  0.000000000000
  lambda(  2)=  0.000000000000
  lambda(  3)=  0.000000000000
  lambda(  4)=  0.000000000000
  lambda(  5)=  0.000000000000
  lambda(  6)=  0.000000000000
  lambda(  7)=  0.000000000000
  lambda(  8)=  0.000000000000
  lambda(  9)=  0.000000000000
  lambda( 10)=  0.000000000000
  lambda( 11)=  0.000000000000
  lambda( 12)=  0.000000000000
  lambda( 13)=  0.000000000000
  lambda( 14)=  0.000000000000
  lambda( 15)=  0.000000000000
  lambda( 16)=  0.000000000000
  lambda( 17)=  0.000000000000
  lambda( 18)=  0.000000000000
  lambda( 19)=  0.000000000000
  lambda( 20)=  0.000000000000
  lambda( 21)=  0.000000000000
  lambda( 22)=  0.000000000000
  lambda( 23)=  0.000000000000
  lambda( 24)=  0.000000000000
  lambda( 25)=  0.000000000000
  lambda( 26)=  0.000000000000
  lambda( 27)=  0.000000000000
  lambda( 28)=  0.000000000000
  lambda( 29)=  0.000000000000
  lambda( 30)=  0.000000000000
  lambda( 31)=  0.000000000000
  lambda( 32)=  0.000000000000
  lambda( 33)=  0.000000000000
  lambda( 34)=  0.000000000000
  lambda( 35)=  0.000000000000
  lambda( 36)=  0.000000000000
  lambda( 37)=  0.000000000000
  lambda( 38)=  0.000000000000
  lambda( 39)=  0.000000000000
  lambda( 40)=  0.000000000000
  lambda( 41)=  0.000000000000
  lambda( 42)=  0.000000000000
  lambda( 43)=  0.000000000000
  lambda( 44)=  0.000000000000
  lambda( 45)=  0.000000000000
  lambda( 46)=  0.000000000000
  lambda( 47)=  0.000000000000
  lambda( 48)=  0.000000000000
  lambda( 49)=  0.000000000000
  lambda( 50)=  0.000000000000
  lambda( 51)=  0.000000000000
  lambda( 52)=  0.188096407473
  lambda( 53)=  0.190224864663
  lambda( 54)=  0.193872784927
  lambda( 55)=  0.251073916227
  lambda( 56)=  0.262959771554
  lambda( 57)=  0.325183736886
  lambda( 58)=  0.327403304094
  lambda( 59)=  0.406463442869
  lambda( 60)=  1.000000000000
  lambda( 61)=  1.000000000000
  lambda( 62)=  1.000000000000
  lambda( 63)=  1.000000000000
  lambda( 64)=  1.000000000000
  lambda( 65)=  1.000000000000
  lambda( 66)=  1.000000000000
  lambda( 67)=  1.000000000000
  lambda( 68)=  1.000000000000
  lambda( 69)=  1.000000000000
  lambda( 70)=  1.000000000000
  lambda( 71)=  1.000000000000
  lambda( 72)=  1.000000000000

 K-point  19 ndimwin:  72 we want the 13 leading eigenvector(s) of QPQ
  lambda(  1)=  0.000000000000
  lambda(  2)=  0.000000000000
  lambda(  3)=  0.000000000000
  lambda(  4)=  0.000000000000
  lambda(  5)=  0.000000000000
  lambda(  6)=  0.000000000000
  lambda(  7)=  0.000000000000
  lambda(  8)=  0.000000000000
  lambda(  9)=  0.000000000000
  lambda( 10)=  0.000000000000
  lambda( 11)=  0.000000000000
  lambda( 12)=  0.000000000000
  lambda( 13)=  0.000000000000
  lambda( 14)=  0.000000000000
  lambda( 15)=  0.000000000000
  lambda( 16)=  0.000000000000
  lambda( 17)=  0.000000000000
  lambda( 18)=  0.000000000000
  lambda( 19)=  0.000000000000
  lambda( 20)=  0.000000000000
  lambda( 21)=  0.000000000000
  lambda( 22)=  0.000000000000
  lambda( 23)=  0.000000000000
  lambda( 24)=  0.000000000000
  lambda( 25)=  0.000000000000
  lambda( 26)=  0.000000000000
  lambda( 27)=  0.000000000000
  lambda( 28)=  0.000000000000
  lambda( 29)=  0.000000000000
  lambda( 30)=  0.000000000000
  lambda( 31)=  0.000000000000
  lambda( 32)=  0.000000000000
  lambda( 33)=  0.000000000000
  lambda( 34)=  0.000000000000
  lambda( 35)=  0.000000000000
  lambda( 36)=  0.000000000000
  lambda( 37)=  0.000000000000
  lambda( 38)=  0.000000000000
  lambda( 39)=  0.000000000000
  lambda( 40)=  0.000000000000
  lambda( 41)=  0.000000000000
  lambda( 42)=  0.000000000000
  lambda( 43)=  0.000000000000
  lambda( 44)=  0.000000000000
  lambda( 45)=  0.000000000000
  lambda( 46)=  0.000000000000
  lambda( 47)=  0.000000000000
  lambda( 48)=  0.000000000000
  lambda( 49)=  0.000000000000
  lambda( 50)=  0.000000000000
  lambda( 51)=  0.000000000000
  lambda( 52)=  0.167107240373
  lambda( 53)=  0.173158248336
  lambda( 54)=  0.185821336788
  lambda( 55)=  0.188606108020
  lambda( 56)=  0.261397010399
  lambda( 57)=  0.262153344549
  lambda( 58)=  0.378936341667
  lambda( 59)=  0.380128578346
  lambda( 60)=  1.000000000000
  lambda( 61)=  1.000000000000
  lambda( 62)=  1.000000000000
  lambda( 63)=  1.000000000000
  lambda( 64)=  1.000000000000
  lambda( 65)=  1.000000000000
  lambda( 66)=  1.000000000000
  lambda( 67)=  1.000000000000
  lambda( 68)=  1.000000000000
  lambda( 69)=  1.000000000000
  lambda( 70)=  1.000000000000
  lambda( 71)=  1.000000000000
  lambda( 72)=  1.000000000000

[...]
  WF centre and spread   56  (  1.697066,  2.947209,  1.572782 )     1.88182095
  WF centre and spread   57  (  1.697122,  3.094567,  1.575529 )     2.02782072
  WF centre and spread   58  (  1.694977,  2.813998,  1.573521 )     2.01718482
  WF centre and spread   59  ( -1.700629,  2.954653,  1.572392 )     1.88126879
  WF centre and spread   60  ( -1.703663,  3.108910,  1.573671 )     2.02086423
  WF centre and spread   61  ( -1.705545,  2.827967,  1.575705 )     2.02454623
  WF centre and spread   62  (  3.415094, -0.013915,  1.572730 )     1.88292920
  WF centre and spread   63  (  3.419010,  0.138820,  1.574510 )     2.01708739
  WF centre and spread   64  (  3.418950, -0.141733,  1.574601 )     2.02679441
  Sum of centres and spreads (109.146036,141.796886,280.961626 )   127.47673161
 
    450    -0.364E-04     0.0155399410      127.4766944026      15.07  <-- CONV
        O_D=      0.0240438 O_OD=      7.4128791 O_TOT=    127.4766944 <-- SPRD
 Delta: O_D= -0.1055330E-05 O_OD= -0.3534532E-04 O_TOT= -0.3640065E-04 <-- DLTA
 ------------------------------------------------------------------------------
 Cycle:    500
  LINE --> Iteration                     :         500
  LINE --> Spread at initial point       :   127.474435837468     
  LINE --> Spread at trial step          :   127.474434696577     
  LINE --> Slope along search direction  : -5.762192046731303E-007
  LINE --> ||SD gradient||^2             :  1.903211763305028E-004
  LINE --> Trial step length             :   2.00000000000000     
  LINE --> Optimal parabolic step length :   99.7977882702308     
  LINE --> Spread at predicted minimum   :   127.474407084767     
  LINE --> CG coefficient                :  0.498733347070810     
  WF centre and spread    1  (  0.000738,  3.938132,  8.015438 )     2.72614189
  WF centre and spread    2  (  0.000865,  3.946721,  8.027621 )     1.67091306
  WF centre and spread    3  ( -0.000885,  3.930882,  8.027617 )     1.67104185
  WF centre and spread    4  (  0.001152,  3.933985,  8.034252 )     1.83210664
  WF centre and spread    5  ( -0.001859,  3.942047,  8.034231 )     1.83281308
  WF centre and spread    6  (  3.410814,  1.969246,  8.018439 )     0.63981590
  WF centre and spread    7  (  3.410883,  1.972936,  8.017249 )     0.70965028
  WF centre and spread    8  (  3.410744,  1.965518,  8.017248 )     0.70980223
  WF centre and spread    9  (  3.409889,  1.977009,  8.018632 )     0.68936594
  WF centre and spread   10  (  3.411736,  1.961461,  8.018631 )     0.68934641
  WF centre and spread   11  (  1.265395,  2.184647,  6.587166 )     1.66030209
  WF centre and spread   12  (  1.307565,  2.179058,  6.656685 )     1.73109783
  WF centre and spread   13  (  1.235588,  2.165819,  6.618699 )     1.61924978
  WF centre and spread   14  (  4.297382,  0.003405,  6.587265 )     1.66213079
  WF centre and spread   15  (  4.336087,  0.001337,  6.609131 )     1.59794236
  WF centre and spread   16  (  4.272504,  0.028779,  6.666328 )     1.74996445
  WF centre and spread   17  ( -2.153015,  3.718795,  6.587514 )     1.66271798
  WF centre and spread   18  ( -2.145896,  3.719395,  6.649430 )     1.70055507
  WF centre and spread   19  ( -2.182714,  3.722199,  6.625465 )     1.64919330
  WF centre and spread   20  (  2.176412,  3.735902,  9.440062 )     1.61795258
  WF centre and spread   21  (  2.165046,  3.735766,  9.372888 )     1.69411623
  WF centre and spread   22  (  2.204137,  3.737214,  9.392260 )     1.64812948
  WF centre and spread   23  (  2.497750,  0.015329,  9.440486 )     1.61738310
  WF centre and spread   24  (  2.460904,  0.011351,  9.409777 )     1.59397812
  WF centre and spread   25  (  2.526279,  0.038000,  9.354637 )     1.74643345
  WF centre and spread   26  ( -1.262582,  2.155748,  9.440388 )     1.61557231
  WF centre and spread   27  ( -1.304704,  2.154018,  9.362593 )     1.72915795
  WF centre and spread   28  ( -1.231269,  2.140114,  9.402069 )     1.61347023
  WF centre and spread   29  (  1.704925,  0.936623, -0.055198 )     2.46292638
  WF centre and spread   30  (  1.721268,  0.839126,  0.154279 )     2.58522887
  WF centre and spread   31  (  1.704721,  1.167022,  0.142670 )     2.56654740
  WF centre and spread   32  (  1.713965,  0.927601,  3.181237 )     2.45058351
  WF centre and spread   33  (  1.710153,  0.837482,  2.982916 )     2.56152624
  WF centre and spread   34  (  1.711224,  1.156189,  2.997357 )     2.54416986
  WF centre and spread   35  (  3.411337,  3.892664, -0.055838 )     2.46215401
  WF centre and spread   36  (  3.392877,  3.793936,  0.155973 )     2.58640398
  WF centre and spread   37  (  3.410795,  4.122180,  0.141664 )     2.56563371
  WF centre and spread   38  (  3.390228,  3.895526,  3.182711 )     2.45029114
  WF centre and spread   39  (  3.408071,  3.800968,  2.983001 )     2.56174862
  WF centre and spread   40  (  3.396372,  4.118872,  2.995822 )     2.54431373
  WF centre and spread   41  (  0.000826,  3.895815, -0.061190 )     2.45464404
  WF centre and spread   42  ( -0.001218,  3.798186,  0.148594 )     2.58349623
  WF centre and spread   43  (  0.000483,  4.121722,  0.137614 )     2.56576092
  WF centre and spread   44  (  0.002731,  3.896468,  3.202332 )     2.45822667
  WF centre and spread   45  ( -0.005894,  3.804997,  3.001803 )     2.56294373
  WF centre and spread   46  (  0.003075,  4.114097,  3.012158 )     2.54729294
  WF centre and spread   47  (  5.114746,  0.945292, -0.055735 )     2.46084445
  WF centre and spread   48  (  5.120536,  0.846354,  0.153435 )     2.58393548
  WF centre and spread   49  (  5.116040,  1.180802,  0.144150 )     2.56766856
  WF centre and spread   50  (  5.125587,  0.951083,  3.181717 )     2.45472925
  WF centre and spread   51  (  5.119538,  0.858404,  2.986597 )     2.56000261
  WF centre and spread   52  (  5.122269,  1.177645,  2.993262 )     2.54167982
  WF centre and spread   53  ( -0.000721, -0.006991,  1.570341 )     1.88214060
  WF centre and spread   54  ( -0.001489,  0.144925,  1.571146 )     2.02381135
  WF centre and spread   55  (  0.002265, -0.135442,  1.571165 )     2.02498898
  WF centre and spread   56  (  1.697110,  2.946772,  1.572794 )     1.88217382
  WF centre and spread   57  (  1.697150,  3.095023,  1.575511 )     2.02750075
  WF centre and spread   58  (  1.694903,  2.814023,  1.573523 )     2.01717688
  WF centre and spread   59  ( -1.700561,  2.954229,  1.572379 )     1.88157030
  WF centre and spread   60  ( -1.703645,  3.109352,  1.573690 )     2.02060522
  WF centre and spread   61  ( -1.705637,  2.827992,  1.575702 )     2.02452631
  WF centre and spread   62  (  3.415065, -0.014326,  1.572738 )     1.88336564
  WF centre and spread   63  (  3.418931,  0.139251,  1.574500 )     2.01670443
  WF centre and spread   64  (  3.419062, -0.141707,  1.574601 )     2.02678345
  Sum of centres and spreads (109.146038,141.796972,280.961624 )   127.47444429
 
    500    -0.288E-04     0.0137956941      127.4744070848      15.64  <-- CONV
        O_D=      0.0240267 O_OD=      7.4106088 O_TOT=    127.4744071 <-- SPRD
 Delta: O_D=  0.1893606E-05 O_OD= -0.3064630E-04 O_TOT= -0.2875269E-04 <-- DLTA
 ------------------------------------------------------------------------------

 Writing checkpoint file crbr3.nbse2.bilayer.up.chk... done

 Final State
  WF centre and spread    1  (  0.000738,  3.938132,  8.015438 )     2.72614189
  WF centre and spread    2  (  0.000865,  3.946721,  8.027621 )     1.67091306
  WF centre and spread    3  ( -0.000885,  3.930882,  8.027617 )     1.67104185
  WF centre and spread    4  (  0.001152,  3.933985,  8.034252 )     1.83210664
  WF centre and spread    5  ( -0.001859,  3.942047,  8.034231 )     1.83281308
  WF centre and spread    6  (  3.410814,  1.969246,  8.018439 )     0.63981590
  WF centre and spread    7  (  3.410883,  1.972936,  8.017249 )     0.70965028
  WF centre and spread    8  (  3.410744,  1.965518,  8.017248 )     0.70980223
  WF centre and spread    9  (  3.409889,  1.977009,  8.018632 )     0.68936594
  WF centre and spread   10  (  3.411736,  1.961461,  8.018631 )     0.68934641
  WF centre and spread   11  (  1.265395,  2.184647,  6.587166 )     1.66030209
  WF centre and spread   12  (  1.307565,  2.179058,  6.656685 )     1.73109783
  WF centre and spread   13  (  1.235588,  2.165819,  6.618699 )     1.61924978
  WF centre and spread   14  (  4.297382,  0.003405,  6.587265 )     1.66213079
  WF centre and spread   15  (  4.336087,  0.001337,  6.609131 )     1.59794236
  WF centre and spread   16  (  4.272504,  0.028779,  6.666328 )     1.74996445
  WF centre and spread   17  ( -2.153015,  3.718795,  6.587514 )     1.66271798
  WF centre and spread   18  ( -2.145896,  3.719395,  6.649430 )     1.70055507
  WF centre and spread   19  ( -2.182714,  3.722199,  6.625465 )     1.64919330
  WF centre and spread   20  (  2.176412,  3.735902,  9.440062 )     1.61795258
  WF centre and spread   21  (  2.165046,  3.735766,  9.372888 )     1.69411623
  WF centre and spread   22  (  2.204137,  3.737214,  9.392260 )     1.64812948
  WF centre and spread   23  (  2.497750,  0.015329,  9.440486 )     1.61738310
  WF centre and spread   24  (  2.460904,  0.011351,  9.409777 )     1.59397812
  WF centre and spread   25  (  2.526279,  0.038000,  9.354637 )     1.74643345
  WF centre and spread   26  ( -1.262582,  2.155748,  9.440388 )     1.61557231
  WF centre and spread   27  ( -1.304704,  2.154018,  9.362593 )     1.72915795
  WF centre and spread   28  ( -1.231269,  2.140114,  9.402069 )     1.61347023
  WF centre and spread   29  (  1.704925,  0.936623, -0.055198 )     2.46292638
  WF centre and spread   30  (  1.721268,  0.839126,  0.154279 )     2.58522887
  WF centre and spread   31  (  1.704721,  1.167022,  0.142670 )     2.56654740
  WF centre and spread   32  (  1.713965,  0.927601,  3.181237 )     2.45058351
  WF centre and spread   33  (  1.710153,  0.837482,  2.982916 )     2.56152624
  WF centre and spread   34  (  1.711224,  1.156189,  2.997357 )     2.54416986
  WF centre and spread   35  (  3.411337,  3.892664, -0.055838 )     2.46215401
  WF centre and spread   36  (  3.392877,  3.793936,  0.155973 )     2.58640398
  WF centre and spread   37  (  3.410795,  4.122180,  0.141664 )     2.56563371
  WF centre and spread   38  (  3.390228,  3.895526,  3.182711 )     2.45029114
  WF centre and spread   39  (  3.408071,  3.800968,  2.983001 )     2.56174862
  WF centre and spread   40  (  3.396372,  4.118872,  2.995822 )     2.54431373
  WF centre and spread   41  (  0.000826,  3.895815, -0.061190 )     2.45464404
  WF centre and spread   42  ( -0.001218,  3.798186,  0.148594 )     2.58349623
  WF centre and spread   43  (  0.000483,  4.121722,  0.137614 )     2.56576092
  WF centre and spread   44  (  0.002731,  3.896468,  3.202332 )     2.45822667
  WF centre and spread   45  ( -0.005894,  3.804997,  3.001803 )     2.56294373
  WF centre and spread   46  (  0.003075,  4.114097,  3.012158 )     2.54729294
  WF centre and spread   47  (  5.114746,  0.945292, -0.055735 )     2.46084445
  WF centre and spread   48  (  5.120536,  0.846354,  0.153435 )     2.58393548
  WF centre and spread   49  (  5.116040,  1.180802,  0.144150 )     2.56766856
  WF centre and spread   50  (  5.125587,  0.951083,  3.181717 )     2.45472925
  WF centre and spread   51  (  5.119538,  0.858404,  2.986597 )     2.56000261
  WF centre and spread   52  (  5.122269,  1.177645,  2.993262 )     2.54167982
  WF centre and spread   53  ( -0.000721, -0.006991,  1.570341 )     1.88214060
  WF centre and spread   54  ( -0.001489,  0.144925,  1.571146 )     2.02381135
  WF centre and spread   55  (  0.002265, -0.135442,  1.571165 )     2.02498898
  WF centre and spread   56  (  1.697110,  2.946772,  1.572794 )     1.88217382
  WF centre and spread   57  (  1.697150,  3.095023,  1.575511 )     2.02750075
  WF centre and spread   58  (  1.694903,  2.814023,  1.573523 )     2.01717688
  WF centre and spread   59  ( -1.700561,  2.954229,  1.572379 )     1.88157030
  WF centre and spread   60  ( -1.703645,  3.109352,  1.573690 )     2.02060522
  WF centre and spread   61  ( -1.705637,  2.827992,  1.575702 )     2.02452631
  WF centre and spread   62  (  3.415065, -0.014326,  1.572738 )     1.88336564
  WF centre and spread   63  (  3.418931,  0.139251,  1.574500 )     2.01670443
  WF centre and spread   64  (  3.419062, -0.141707,  1.574601 )     2.02678345
  Sum of centres and spreads (109.146038,141.796972,280.961624 )   127.47444429
 
         Spreads (Ang^2)       Omega I      =   120.039771552
        ================       Omega D      =     0.024026696
                               Omega OD     =     7.410608837
    Final Spread (Ang^2)       Omega Total  =   127.474407085
 ------------------------------------------------------------------------------
 Final centres (translated to home cell for writing xyz file)
  WF centre    1  (  0.000738,  3.938132,  8.015438 )
  WF centre    2  (  0.000865,  3.946721,  8.027621 )
  WF centre    3  ( -0.000885,  3.930882,  8.027617 )
  WF centre    4  (  0.001152,  3.933985,  8.034252 )
  WF centre    5  ( -0.001859,  3.942047,  8.034231 )
  WF centre    6  (  3.410814,  1.969246,  8.018439 )
  WF centre    7  (  3.410883,  1.972936,  8.017249 )
  WF centre    8  (  3.410744,  1.965518,  8.017248 )
  WF centre    9  (  3.409889,  1.977009,  8.018632 )
  WF centre   10  (  3.411736,  1.961461,  8.018631 )
  WF centre   11  (  1.265395,  2.184647,  6.587166 )
  WF centre   12  (  1.307565,  2.179058,  6.656685 )
  WF centre   13  (  1.235588,  2.165819,  6.618699 )
  WF centre   14  (  4.297382,  0.003405,  6.587265 )
  WF centre   15  (  4.336087,  0.001337,  6.609131 )
  WF centre   16  (  4.272504,  0.028779,  6.666328 )
  WF centre   17  ( -2.153015,  3.718795,  6.587514 )
  WF centre   18  ( -2.145896,  3.719395,  6.649430 )
  WF centre   19  ( -2.182714,  3.722199,  6.625465 )
  WF centre   20  (  2.176412,  3.735902,  9.440062 )
  WF centre   21  (  2.165046,  3.735766,  9.372888 )
  WF centre   22  (  2.204137,  3.737214,  9.392260 )
  WF centre   23  (  2.497750,  0.015329,  9.440486 )
  WF centre   24  (  2.460904,  0.011351,  9.409777 )
  WF centre   25  (  2.526279,  0.038000,  9.354637 )
  WF centre   26  ( -1.262582,  2.155748,  9.440388 )
  WF centre   27  ( -1.304704,  2.154018,  9.362593 )
  WF centre   28  ( -1.231269,  2.140114,  9.402069 )
  WF centre   29  (  1.704925,  0.936623, -0.055198 )
  WF centre   30  (  1.721268,  0.839126,  0.154279 )
  WF centre   31  (  1.704721,  1.167022,  0.142670 )
  WF centre   32  (  1.713965,  0.927601,  3.181237 )
  WF centre   33  (  1.710153,  0.837482,  2.982916 )
  WF centre   34  (  1.711224,  1.156189,  2.997357 )
  WF centre   35  (  3.411337,  3.892664, -0.055838 )
  WF centre   36  (  3.392877,  3.793936,  0.155973 )
  WF centre   37  (  3.410795,  4.122180,  0.141664 )
  WF centre   38  (  3.390228,  3.895526,  3.182711 )
  WF centre   39  (  3.408071,  3.800968,  2.983001 )
  WF centre   40  (  3.396372,  4.118872,  2.995822 )
  WF centre   41  (  0.000826,  3.895815, -0.061190 )
  WF centre   42  ( -0.001218,  3.798186,  0.148594 )
  WF centre   43  (  0.000483,  4.121722,  0.137614 )
  WF centre   44  (  0.002731,  3.896468,  3.202332 )
  WF centre   45  ( -0.005894,  3.804997,  3.001803 )
  WF centre   46  (  0.003075,  4.114097,  3.012158 )
  WF centre   47  (  5.114746,  0.945292, -0.055735 )
  WF centre   48  (  5.120536,  0.846354,  0.153435 )
  WF centre   49  (  5.116040,  1.180802,  0.144150 )
  WF centre   50  (  5.125587,  0.951083,  3.181717 )
  WF centre   51  (  5.119538,  0.858404,  2.986597 )
  WF centre   52  (  5.122269,  1.177645,  2.993262 )
  WF centre   53  ( -0.000721, -0.006991,  1.570341 )
  WF centre   54  ( -0.001489,  0.144925,  1.571146 )
  WF centre   55  (  0.002265, -0.135442,  1.571165 )
  WF centre   56  (  1.697110,  2.946772,  1.572794 )
  WF centre   57  (  1.697150,  3.095023,  1.575511 )
  WF centre   58  (  1.694903,  2.814023,  1.573523 )
  WF centre   59  ( -1.700561,  2.954229,  1.572379 )
  WF centre   60  ( -1.703645,  3.109352,  1.573690 )
  WF centre   61  ( -1.705637,  2.827992,  1.575702 )
  WF centre   62  (  3.415065, -0.014326,  1.572738 )
  WF centre   63  (  3.418931,  0.139251,  1.574500 )
  WF centre   64  (  3.419062, -0.141707,  1.574601 )
 ------------------------------------------------------------------------------
 

 Wannier centres written to file crbr3.nbse2.bilayer.up_centres.xyz
  
  Omega Invariant:   1-s^2 =   120.039771552 (Ang^2)
                   -2log s =   123.045353474 (Ang^2)
                    acos^2 =   122.024013228 (Ang^2)
 Time for wannierise            6.916 (sec)

 Writing checkpoint file crbr3.nbse2.bilayer.up.chk... done

 *---------------------------------------------------------------------------*
 |                               PLOTTING                                    |
 *---------------------------------------------------------------------------*
 
   39 lattice points in Wigner-Seitz supercell:

      vector  -3  -3   0   degeneracy:  2
      vector  -3  -2   0   degeneracy:  1
      vector  -3  -1   0   degeneracy:  1
      vector  -3   0   0   degeneracy:  2
      vector  -2  -4   0   degeneracy:  1
      vector  -2  -3   0   degeneracy:  1
      vector  -2  -2   0   degeneracy:  1
      vector  -2  -1   0   degeneracy:  1
      vector  -2   0   0   degeneracy:  1
      vector  -2   1   0   degeneracy:  1
      vector  -1  -3   0   degeneracy:  1
      vector  -1  -2   0   degeneracy:  1
      vector  -1  -1   0   degeneracy:  1
      vector  -1   0   0   degeneracy:  1
      vector  -1   1   0   degeneracy:  1
      vector  -1   2   0   degeneracy:  1
      vector   0  -3   0   degeneracy:  2
      vector   0  -2   0   degeneracy:  1
      vector   0  -1   0   degeneracy:  1
      vector   0   0   0   degeneracy:  1
      vector   0   1   0   degeneracy:  1
      vector   0   2   0   degeneracy:  1
      vector   0   3   0   degeneracy:  2
      vector   1  -2   0   degeneracy:  1
      vector   1  -1   0   degeneracy:  1
      vector   1   0   0   degeneracy:  1
      vector   1   1   0   degeneracy:  1
      vector   1   2   0   degeneracy:  1
      vector   1   3   0   degeneracy:  1
      vector   2  -1   0   degeneracy:  1
      vector   2   0   0   degeneracy:  1
      vector   2   1   0   degeneracy:  1
      vector   2   2   0   degeneracy:  1
      vector   2   3   0   degeneracy:  1
      vector   2   4   0   degeneracy:  1
      vector   3   0   0   degeneracy:  2
      vector   3   1   0   degeneracy:  1
      vector   3   2   0   degeneracy:  1
      vector   3   3   0   degeneracy:  2
  tot =       36.000
  mp_grid product =           36
 
 Calculating interpolated band-structure
 
 Time to calculate interpolated band structure       5.588 (sec)
 
 Time for plotting              6.453 (sec)
 Total Execution Time          31.774 (sec)

 *===========================================================================*
 |                             TIMING INFORMATION                            |
 *===========================================================================*
 |    Tag                                                Ncalls      Time (s)|
 |---------------------------------------------------------------------------|
 |kmesh: get                                        :         1         0.034|
 |overlap: allocate                                 :         1         0.005|
 |overlap: read                                     :         1         8.679|
 |dis: main                                         :         1         9.635|
 |wann: main                                        :         1         6.916|
 |plot: main                                        :         1         6.453|
 *---------------------------------------------------------------------------*
 
 All done: wannier90 exiting
