
     Program PWSCF v.6.8 starts on 11Jul2023 at 12:19: 1 

     This program is part of the open-source Quantum ESPRESSO suite
     for quantum simulation of materials; please cite
         "P. Giannozzi et al., J. Phys.:Condens. Matter 21 395502 (2009);
         "P. Giannozzi et al., J. Phys.:Condens. Matter 29 465901 (2017);
         "P. Giannozzi et al., J. Chem. Phys. 152 154105 (2020);
          URL http://www.quantum-espresso.org", 
     in publications or presentations arising from this work. More details at
     http://www.quantum-espresso.org/quote

     Parallel version (MPI & OpenMP), running on     160 processor cores
     Number of MPI processes:               160
     Threads/MPI process:                     1

     MPI processes distributed on     4 nodes
     R & G space division:  proc/nbgrp/npool/nimage =     160
     181985 MiB available memory on the printing compute node when the environment starts
 
     Reading input from crbr3.nbse2.bilayer.scf.in

     Current dimensions of program PWSCF are:
     Max number of different atomic species (ntypx) = 10
     Max number of k-points (npk) =  40000
     Max angular momentum in pseudopotentials (lmaxx) =  4
     file Nb.pbe-spn-kjpaw_psl.0.3.0.UPF: wavefunction(s)  4S 4P renormalized

     -------------------------------------------------
     Parameters for Dispersion (Grimme-D2) Correction:
     -------------------------------------------------
       atom      VdW radius       C_6     

        Cr         2.952        374.666
        Br         3.305        432.600
        Nb         3.097        855.833
        Se         3.347        438.498
     Message from routine setup:
     using ibrav=0 with symmetry is DISCOURAGED, use correct ibrav instead

     Subspace diagonalization in iterative solution of the eigenvalue problem:
     one sub-group per band group will be used
     scalapack distributed-memory algorithm (size of sub-group: 12* 12 procs)

 
     Parallelization info
     --------------------
     sticks:   dense  smooth     PW     G-vecs:    dense   smooth      PW
     Min          22      11      3                 4462     1573     219
     Max          23      12      4                 4505     1608     241
     Sum        3667    1813    511               718765   253779   37171
 
     Using Slab Decomposition
 


     bravais-lattice index     =            0
     lattice parameter (alat)  =      12.8910  a.u.
     unit-cell volume          =    7432.9477 (a.u.)^3
     number of atoms/cell      =           20
     number of atomic types    =            4
     number of electrons       =       170.00
     number of Kohn-Sham states=          102
     kinetic-energy cutoff     =      40.0000  Ry
     charge density cutoff     =     320.0000  Ry
     scf convergence threshold =      1.0E-07
     mixing beta               =       0.4000
     number of iterations used =            8  local-TF  mixing
     Exchange-correlation= SLA  PW   PBE  PBE
                           (   1   4   3   4   0   0   0)

     celldm(1)=  12.891009  celldm(2)=   0.000000  celldm(3)=   0.000000
     celldm(4)=   0.000000  celldm(5)=   0.000000  celldm(6)=   0.000000

     crystal axes: (cart. coord. in units of alat)
               a(1) = (   1.000000   0.000000   0.000000 )  
               a(2) = (  -0.500000   0.866025   0.000000 )  
               a(3) = (   0.000000   0.000000   4.006542 )  

     reciprocal axes: (cart. coord. in units 2 pi/alat)
               b(1) = (  1.000000  0.577350  0.000000 )  
               b(2) = (  0.000000  1.154701  0.000000 )  
               b(3) = (  0.000000  0.000000  0.249592 )  


     PseudoPot. # 1 for Cr read from file:
     /u/jojaibal/QuantumEspresso/pseudopotentials/cr_pbe_v1.5.uspp.F.UPF
     MD5 check sum: 0d52af634a40206e4dee301ad30da4bf
     Pseudo is Ultrasoft + core correction, Zval = 14.0
     Generated by new atomic code, or converted to UPF format
     Using radial grid of  857 points,  6 beta functions with: 
                l(1) =   0
                l(2) =   0
                l(3) =   1
                l(4) =   1
                l(5) =   2
                l(6) =   2
     Q(r) pseudized with  8 coefficients,  rinner =    0.950   0.950   0.950
                                                       0.950   0.950

     PseudoPot. # 2 for Br read from file:
     /u/jojaibal/QuantumEspresso/pseudopotentials/br_pbe_v1.4.uspp.F.UPF
     MD5 check sum: d3ffb7b29f6225aa16fe06858fb2a80b
     Pseudo is Ultrasoft + core correction, Zval =  7.0
     Generated by new atomic code, or converted to UPF format
     Using radial grid of  879 points,  6 beta functions with: 
                l(1) =   0
                l(2) =   0
                l(3) =   1
                l(4) =   1
                l(5) =   2
                l(6) =   2
     Q(r) pseudized with  8 coefficients,  rinner =    1.100   1.100   1.100
                                                       1.100   1.100

     PseudoPot. # 3 for Nb read from file:
     /u/jojaibal/QuantumEspresso/pseudopotentials/Nb.pbe-spn-kjpaw_psl.0.3.0.UPF
     MD5 check sum: 411d72ad547312f8017e2943ceca08cc
     Pseudo is Projector augmented-wave + core cor, Zval = 13.0
     Generated using "atomic" code by A. Dal Corso  v.5.0.99 svn rev. 10869
     Shape of augmentation charge: PSQ
     Using radial grid of 1227 points,  6 beta functions with: 
                l(1) =   0
                l(2) =   0
                l(3) =   1
                l(4) =   1
                l(5) =   2
                l(6) =   2
     Q(r) pseudized with 0 coefficients 


     PseudoPot. # 4 for Se read from file:
     /u/jojaibal/QuantumEspresso/pseudopotentials/Se_pbe_v1.uspp.F.UPF
     MD5 check sum: 1b3568f3a8ae88f9a2a0ad0698632c85
     Pseudo is Ultrasoft + core correction, Zval =  6.0
     Generated by new atomic code, or converted to UPF format
     Using radial grid of  877 points,  6 beta functions with: 
                l(1) =   0
                l(2) =   0
                l(3) =   1
                l(4) =   1
                l(5) =   2
                l(6) =   2
     Q(r) pseudized with  8 coefficients,  rinner =    1.300   1.300   1.300
                                                       1.300   1.300

     atomic species   valence    mass     pseudopotential
        Cr            14.00    51.99600     Cr( 1.00)
        Br             7.00    79.90400     Br( 1.00)
        Nb            13.00    92.90640     Nb( 1.00)
        Se             6.00    78.96000     Se( 1.00)

     Starting magnetic structure 
     atomic species   magnetization
        Cr           0.357
        Br           0.000
        Nb           0.000
        Se           0.000


     Simplified LDA+U calculation (l_max = 2) with parameters (eV):
     atomic species    L          U    alpha       J0     beta
        Cr             2     5.1701   0.0000   0.0000   0.0000



      3 Sym. Ops. (no inversion) found



   Cartesian axes

     site n.     atom                  positions (alat units)
         1           Cr  tau(   1) = (  -0.0000000   0.5773503   1.1768297  )
         2           Cr  tau(   2) = (   0.5000000   0.2886751   1.1755225  )
         3           Br  tau(   3) = (   0.1816138   0.3169585   0.9649791  )
         4           Br  tau(   4) = (   0.6346990  -0.0011971   0.9649791  )
         5           Br  tau(   5) = (  -0.3163127   0.5502640   0.9649791  )
         6           Br  tau(   6) = (   0.3195727   0.5527701   1.3843008  )
         7           Br  tau(   7) = (   0.3615007   0.0003730   1.3843008  )
         8           Br  tau(   8) = (  -0.1810734   0.3128823   1.3843008  )
         9           Nb  tau(   9) = (   0.0000000   0.0000000   0.2302035  )
        10           Se  tau(  10) = (   0.2506202   0.1439754  -0.0193504  )
        11           Se  tau(  11) = (   0.2510790   0.1426324   0.4780397  )
        12           Nb  tau(  12) = (   0.2487371   0.4326581   0.2307099  )
        13           Se  tau(  13) = (   0.4993762   0.5769942  -0.0193504  )
        14           Se  tau(  14) = (   0.4979838   0.5772684   0.4780397  )
        15           Nb  tau(  15) = (  -0.2496756   0.4342837   0.2307099  )
        16           Se  tau(  16) = (  -0.0000000   0.5773503  -0.0202543  )
        17           Se  tau(  17) = (  -0.0000000   0.5773503   0.4808095  )
        18           Nb  tau(  18) = (   0.5009385  -0.0009164   0.2307099  )
        19           Se  tau(  19) = (   0.7500036   0.1450558  -0.0193504  )
        20           Se  tau(  20) = (   0.7509372   0.1461246   0.4780397  )

     number of k points=    16  Marzari-Vanderbilt smearing, width (Ry)=  0.0147
                       cart. coord. in units 2pi/alat
        k(    1) = (   0.0000000   0.0000000   0.0000000), wk =   0.0138889
        k(    2) = (   0.0000000   0.0000000  -0.1247959), wk =   0.0138889
        k(    3) = (   0.0000000   0.1924501   0.0000000), wk =   0.0833333
        k(    4) = (   0.0000000   0.1924501  -0.1247959), wk =   0.0833333
        k(    5) = (   0.0000000   0.3849002   0.0000000), wk =   0.0833333
        k(    6) = (   0.0000000   0.3849002  -0.1247959), wk =   0.0833333
        k(    7) = (   0.0000000  -0.5773503   0.0000000), wk =   0.0416667
        k(    8) = (   0.0000000  -0.5773503  -0.1247959), wk =   0.0416667
        k(    9) = (   0.1666667   0.2886751   0.0000000), wk =   0.0833333
        k(   10) = (   0.1666667   0.2886751  -0.1247959), wk =   0.0833333
        k(   11) = (   0.1666667   0.4811252   0.0000000), wk =   0.0833333
        k(   12) = (   0.1666667   0.4811252  -0.1247959), wk =   0.0833333
        k(   13) = (   0.3333333   0.5773503   0.0000000), wk =   0.0277778
        k(   14) = (   0.3333333   0.5773503  -0.1247959), wk =   0.0277778
        k(   15) = (   0.1666667  -0.4811252   0.0000000), wk =   0.0833333
        k(   16) = (   0.1666667  -0.4811252   0.1247959), wk =   0.0833333

     Dense  grid:   718765 G-vectors     FFT dimensions: (  75,  75, 300)

     Smooth grid:   253779 G-vectors     FFT dimensions: (  54,  54, 216)

     Estimated max dynamical RAM per process >      37.27 MB

     Estimated total dynamical RAM >       5.82 GB

     Check: negative core charge=   -0.000001
     Generating pointlists ...
     new r_m :   0.1574 (alat units)  2.0295 (a.u.) for type    1
     new r_m :   0.1574 (alat units)  2.0295 (a.u.) for type    2
     new r_m :   0.1566 (alat units)  2.0193 (a.u.) for type    3
     new r_m :   0.1566 (alat units)  2.0193 (a.u.) for type    4

     Initial potential from superposition of free atoms

     starting charge  167.99080, renormalised to  170.00000

     negative rho (up, down):  3.274E-03 1.740E-03
     Number of +U iterations with fixed ns =  0
     Starting occupations:
 --- enter write_ns ---
 LDA+U parameters:
U( 1)     =  5.17010000
atom    1   Tr[ns(na)] (up, down, total) =   5.00000  0.00000  5.00000
   spin  1
    eigenvalues: 
  1.000  1.000  1.000  1.000  1.000
    eigenvectors:
  1.000  0.000  0.000  0.000  0.000
  0.000  1.000  0.000  0.000  0.000
  0.000  0.000  1.000  0.000  0.000
  0.000  0.000  0.000  1.000  0.000
  0.000  0.000  0.000  0.000  1.000
    occupations:
  1.000  0.000  0.000  0.000  0.000
  0.000  1.000  0.000  0.000  0.000
  0.000  0.000  1.000  0.000  0.000
  0.000  0.000  0.000  1.000  0.000
  0.000  0.000  0.000  0.000  1.000
   spin  2
    eigenvalues: 
  0.000  0.000  0.000  0.000  0.000
    eigenvectors:
  1.000  0.000  0.000  0.000  0.000
  0.000  1.000  0.000  0.000  0.000
  0.000  0.000  1.000  0.000  0.000
  0.000  0.000  0.000  1.000  0.000
  0.000  0.000  0.000  0.000  1.000
    occupations:
  0.000  0.000  0.000  0.000  0.000
  0.000  0.000  0.000  0.000  0.000
  0.000  0.000  0.000  0.000  0.000
  0.000  0.000  0.000  0.000  0.000
  0.000  0.000  0.000  0.000  0.000
atomic mag. moment =   5.00000
atom    2   Tr[ns(na)] (up, down, total) =   5.00000  0.00000  5.00000
   spin  1
    eigenvalues: 
  1.000  1.000  1.000  1.000  1.000
    eigenvectors:
  1.000  0.000  0.000  0.000  0.000
  0.000  1.000  0.000  0.000  0.000
  0.000  0.000  1.000  0.000  0.000
  0.000  0.000  0.000  1.000  0.000
  0.000  0.000  0.000  0.000  1.000
    occupations:
  1.000  0.000  0.000  0.000  0.000
  0.000  1.000  0.000  0.000  0.000
  0.000  0.000  1.000  0.000  0.000
  0.000  0.000  0.000  1.000  0.000
  0.000  0.000  0.000  0.000  1.000
   spin  2
    eigenvalues: 
  0.000  0.000  0.000  0.000  0.000
    eigenvectors:
  1.000  0.000  0.000  0.000  0.000
  0.000  1.000  0.000  0.000  0.000
  0.000  0.000  1.000  0.000  0.000
  0.000  0.000  0.000  1.000  0.000
  0.000  0.000  0.000  0.000  1.000
    occupations:
  0.000  0.000  0.000  0.000  0.000
  0.000  0.000  0.000  0.000  0.000
  0.000  0.000  0.000  0.000  0.000
  0.000  0.000  0.000  0.000  0.000
  0.000  0.000  0.000  0.000  0.000
atomic mag. moment =   5.00000
N of occupied +U levels =   10.000000
 --- exit write_ns ---
 Atomic wfc used for LDA+U Projector are NOT orthogonalized
     Starting wfcs are  116 randomized atomic wfcs
     Checking if some PAW data can be deallocated... 

     total cpu time spent up to now is       10.3 secs

     Self-consistent Calculation

     iteration #  1     ecut=    40.00 Ry     beta= 0.40
     Davidson diagonalization with overlap
     ethr =  1.00E-02,  avg # of iterations =  9.2
 --- enter write_ns ---
 LDA+U parameters:
U( 1)     =  5.17010000
atom    1   Tr[ns(na)] (up, down, total) =   4.99981  4.93763  9.93744
   spin  1
    eigenvalues: 
  0.999  0.999  1.000  1.000  1.000
    eigenvectors:
  0.000  0.000  1.000  0.000  0.000
  0.522  0.053  0.000  0.284  0.142
  0.053  0.522  0.000  0.142  0.284
  0.388  0.038  0.000  0.387  0.188
  0.038  0.388  0.000  0.188  0.387
    occupations:
  1.000  0.000 -0.000  0.000  0.000
  0.000  1.000  0.000  0.000 -0.000
 -0.000  0.000  1.000 -0.000 -0.000
  0.000  0.000 -0.000  1.000 -0.000
  0.000 -0.000 -0.000 -0.000  1.000
   spin  2
    eigenvalues: 
  0.986  0.986  0.988  0.989  0.989
    eigenvectors:
  0.000  0.000  1.000  0.000  0.000
  0.003  0.012  0.000  0.275  0.710
  0.012  0.003  0.000  0.710  0.275
  0.711  0.273  0.000  0.012  0.003
  0.273  0.711  0.000  0.003  0.012
    occupations:
  0.988  0.000 -0.000  0.000  0.000
  0.000  0.989  0.000  0.000 -0.000
 -0.000  0.000  0.989 -0.000 -0.000
  0.000  0.000 -0.000  0.986 -0.000
  0.000 -0.000 -0.000 -0.000  0.986
atomic mag. moment =   0.06218
atom    2   Tr[ns(na)] (up, down, total) =   4.99987  4.93823  9.93810
   spin  1
    eigenvalues: 
  1.000  1.000  1.000  1.000  1.000
    eigenvectors:
  0.000  0.000  1.000  0.000  0.000
  0.532  0.042  0.000  0.291  0.134
  0.042  0.532  0.000  0.134  0.291
  0.390  0.036  0.000  0.383  0.191
  0.036  0.390  0.000  0.191  0.383
    occupations:
  1.000  0.000 -0.000  0.000  0.000
  0.000  1.000  0.000  0.000  0.000
 -0.000  0.000  1.000  0.000 -0.000
  0.000  0.000  0.000  1.000 -0.000
  0.000  0.000 -0.000 -0.000  1.000
   spin  2
    eigenvalues: 
  0.986  0.986  0.988  0.989  0.989
    eigenvectors:
  0.000  0.000  1.000  0.000  0.000
  0.004  0.015  0.000  0.695  0.286
  0.015  0.004  0.000  0.286  0.695
  0.788  0.192  0.000  0.005  0.014
  0.192  0.788  0.000  0.014  0.005
    occupations:
  0.988  0.000 -0.000  0.000  0.000
  0.000  0.989  0.000  0.000  0.000
 -0.000  0.000  0.989  0.000 -0.000
  0.000  0.000  0.000  0.986 -0.000
  0.000  0.000 -0.000 -0.000  0.986
atomic mag. moment =   0.06164
N of occupied +U levels =   19.875532
 --- exit write_ns ---

     negative rho (up, down):  1.266E-01 1.383E-01

     total cpu time spent up to now is       34.3 secs

     total energy              =   -2324.73693041 Ry
     estimated scf accuracy    <    1691.37879471 Ry

     total magnetization       =     1.80 Bohr mag/cell
     absolute magnetization    =     1.87 Bohr mag/cell

     iteration #  2     ecut=    40.00 Ry     beta= 0.40
     Davidson diagonalization with overlap
     ethr =  1.00E-02,  avg # of iterations =  2.3

     negative rho (up, down):  3.140E-01 3.360E-01

     total cpu time spent up to now is       45.7 secs

     total energy              =   -2291.73689852 Ry
     estimated scf accuracy    <     810.82134943 Ry

     total magnetization       =     1.11 Bohr mag/cell
     absolute magnetization    =     1.45 Bohr mag/cell

     iteration #  3     ecut=    40.00 Ry     beta= 0.40
     Davidson diagonalization with overlap
     ethr =  1.00E-02,  avg # of iterations = 11.2

     negative rho (up, down):  2.480E-01 2.605E-01

     total cpu time spent up to now is       72.7 secs

     total energy              =   -2321.07018714 Ry
     estimated scf accuracy    <      64.47969185 Ry

     total magnetization       =     0.18 Bohr mag/cell
     absolute magnetization    =     0.29 Bohr mag/cell

     iteration #  4     ecut=    40.00 Ry     beta= 0.40
     Davidson diagonalization with overlap
     ethr =  1.00E-02,  avg # of iterations =  1.2

     negative rho (up, down):  1.705E-01 1.605E-01

     total cpu time spent up to now is       81.9 secs

     total energy              =   -2305.78157372 Ry
     estimated scf accuracy    <      46.61887174 Ry

     total magnetization       =     0.09 Bohr mag/cell
     absolute magnetization    =     0.20 Bohr mag/cell

     iteration #  5     ecut=    40.00 Ry     beta= 0.40
     Davidson diagonalization with overlap
     ethr =  1.00E-02,  avg # of iterations =  4.7

     negative rho (up, down):  1.401E-01 1.440E-01

     total cpu time spent up to now is       98.9 secs

     total energy              =   -2318.10927000 Ry
     estimated scf accuracy    <     487.48456682 Ry

     total magnetization       =     0.36 Bohr mag/cell
     absolute magnetization    =     0.50 Bohr mag/cell

     iteration #  6     ecut=    40.00 Ry     beta= 0.40
     Davidson diagonalization with overlap
     ethr =  1.00E-02,  avg # of iterations =  2.2

     negative rho (up, down):  1.519E-01 1.580E-01

     total cpu time spent up to now is      110.1 secs

     total energy              =   -2318.89172927 Ry
     estimated scf accuracy    <     179.08237495 Ry

     total magnetization       =     0.02 Bohr mag/cell
     absolute magnetization    =     0.14 Bohr mag/cell

     iteration #  7     ecut=    40.00 Ry     beta= 0.40
     Davidson diagonalization with overlap
     ethr =  1.00E-02,  avg # of iterations =  2.0

     negative rho (up, down):  1.448E-01 1.503E-01

     total cpu time spent up to now is      119.8 secs

     total energy              =   -2319.39404667 Ry
     estimated scf accuracy    <      98.01204229 Ry

     total magnetization       =     1.47 Bohr mag/cell
     absolute magnetization    =     1.57 Bohr mag/cell

     iteration #  8     ecut=    40.00 Ry     beta= 0.40
     Davidson diagonalization with overlap
     ethr =  1.00E-02,  avg # of iterations =  1.3

     negative rho (up, down):  1.432E-01 1.491E-01

     total cpu time spent up to now is      128.9 secs

     total energy              =   -2319.18949622 Ry
     estimated scf accuracy    <     102.74338220 Ry

     total magnetization       =     2.88 Bohr mag/cell
     absolute magnetization    =     3.03 Bohr mag/cell

     iteration #  9     ecut=    40.00 Ry     beta= 0.40
     Davidson diagonalization with overlap
     ethr =  1.00E-02,  avg # of iterations =  1.0

     negative rho (up, down):  1.427E-01 1.488E-01

     total cpu time spent up to now is      137.9 secs

     total energy              =   -2319.10098592 Ry
     estimated scf accuracy    <      77.59121064 Ry

     total magnetization       =     3.28 Bohr mag/cell
     absolute magnetization    =     3.54 Bohr mag/cell

     iteration # 10     ecut=    40.00 Ry     beta= 0.40
     Davidson diagonalization with overlap
     ethr =  1.00E-02,  avg # of iterations =  1.3

     negative rho (up, down):  1.300E-01 1.363E-01

     total cpu time spent up to now is      147.2 secs

     total energy              =   -2318.80570861 Ry
     estimated scf accuracy    <      67.55528978 Ry

     total magnetization       =     2.78 Bohr mag/cell
     absolute magnetization    =     3.06 Bohr mag/cell

     iteration # 11     ecut=    40.00 Ry     beta= 0.40
     Davidson diagonalization with overlap
     ethr =  1.00E-02,  avg # of iterations =  1.8

     negative rho (up, down):  8.661E-02 9.541E-02

     total cpu time spent up to now is      156.9 secs

     total energy              =   -2315.58360280 Ry
     estimated scf accuracy    <      45.49973073 Ry

     total magnetization       =     1.06 Bohr mag/cell
     absolute magnetization    =     2.35 Bohr mag/cell

     iteration # 12     ecut=    40.00 Ry     beta= 0.40
     Davidson diagonalization with overlap
     ethr =  1.00E-02,  avg # of iterations =  4.0

     negative rho (up, down):  8.649E-02 9.436E-02

     total cpu time spent up to now is      169.0 secs

     total energy              =   -2319.30192100 Ry
     estimated scf accuracy    <      24.74721915 Ry

     total magnetization       =     1.51 Bohr mag/cell
     absolute magnetization    =     2.62 Bohr mag/cell

     iteration # 13     ecut=    40.00 Ry     beta= 0.40
     Davidson diagonalization with overlap
     ethr =  1.00E-02,  avg # of iterations =  2.0

     negative rho (up, down):  8.544E-02 9.486E-02

     total cpu time spent up to now is      179.0 secs

     total energy              =   -2319.26532297 Ry
     estimated scf accuracy    <      43.95868163 Ry

     total magnetization       =     0.13 Bohr mag/cell
     absolute magnetization    =     1.41 Bohr mag/cell

     iteration # 14     ecut=    40.00 Ry     beta= 0.40
     Davidson diagonalization with overlap
     ethr =  1.00E-02,  avg # of iterations =  1.0

     negative rho (up, down):  8.591E-02 9.204E-02

     total cpu time spent up to now is      187.9 secs

     total energy              =   -2317.17514416 Ry
     estimated scf accuracy    <      43.82699081 Ry

     total magnetization       =     0.04 Bohr mag/cell
     absolute magnetization    =     1.51 Bohr mag/cell

     iteration # 15     ecut=    40.00 Ry     beta= 0.40
     Davidson diagonalization with overlap
     ethr =  1.00E-02,  avg # of iterations =  1.0

     negative rho (up, down):  8.626E-02 9.068E-02

     total cpu time spent up to now is      196.9 secs

     total energy              =   -2318.25826125 Ry
     estimated scf accuracy    <       4.65644256 Ry

     total magnetization       =     1.10 Bohr mag/cell
     absolute magnetization    =     4.10 Bohr mag/cell

     iteration # 16     ecut=    40.00 Ry     beta= 0.40
     Davidson diagonalization with overlap
     ethr =  2.74E-03,  avg # of iterations =  1.5

     negative rho (up, down):  7.643E-02 8.124E-02

     total cpu time spent up to now is      206.3 secs

     total energy              =   -2318.30065357 Ry
     estimated scf accuracy    <       4.59906509 Ry

     total magnetization       =     1.36 Bohr mag/cell
     absolute magnetization    =     4.60 Bohr mag/cell

     iteration # 17     ecut=    40.00 Ry     beta= 0.40
     Davidson diagonalization with overlap
     ethr =  2.71E-03,  avg # of iterations =  1.0

     negative rho (up, down):  8.650E-02 9.141E-02

     total cpu time spent up to now is      215.2 secs

     total energy              =   -2318.56927992 Ry
     estimated scf accuracy    <       0.82532126 Ry

     total magnetization       =     0.39 Bohr mag/cell
     absolute magnetization    =     7.11 Bohr mag/cell

     iteration # 18     ecut=    40.00 Ry     beta= 0.40
     Davidson diagonalization with overlap
     c_bands:  1 eigenvalues not converged
     c_bands:  2 eigenvalues not converged
     ethr =  4.85E-04,  avg # of iterations = 10.9

     negative rho (up, down):  7.282E-02 7.689E-02

     total cpu time spent up to now is      232.9 secs

     total energy              =   -2318.65914951 Ry
     estimated scf accuracy    <       0.75352289 Ry

     total magnetization       =     0.42 Bohr mag/cell
     absolute magnetization    =     6.86 Bohr mag/cell

     iteration # 19     ecut=    40.00 Ry     beta= 0.40
     Davidson diagonalization with overlap
     ethr =  4.43E-04,  avg # of iterations =  2.3

     negative rho (up, down):  7.887E-02 7.371E-02

     total cpu time spent up to now is      243.0 secs

     total energy              =   -2318.98804618 Ry
     estimated scf accuracy    <       0.84538250 Ry

     total magnetization       =     0.19 Bohr mag/cell
     absolute magnetization    =     7.24 Bohr mag/cell

     iteration # 20     ecut=    40.00 Ry     beta= 0.40
     Davidson diagonalization with overlap
     ethr =  4.43E-04,  avg # of iterations =  6.1

     negative rho (up, down):  7.523E-02 6.595E-02

     total cpu time spent up to now is      257.6 secs

     total energy              =   -2319.37519744 Ry
     estimated scf accuracy    <      14.08799720 Ry

     total magnetization       =    -0.95 Bohr mag/cell
     absolute magnetization    =     8.01 Bohr mag/cell

     iteration # 21     ecut=    40.00 Ry     beta= 0.40
     Davidson diagonalization with overlap
     c_bands:  1 eigenvalues not converged
     ethr =  4.43E-04,  avg # of iterations =  2.3

     negative rho (up, down):  5.922E-02 5.241E-02

     total cpu time spent up to now is      267.8 secs

     total energy              =   -2319.21750014 Ry
     estimated scf accuracy    <      13.84937312 Ry

     total magnetization       =    -1.34 Bohr mag/cell
     absolute magnetization    =     8.22 Bohr mag/cell

     iteration # 22     ecut=    40.00 Ry     beta= 0.40
     Davidson diagonalization with overlap
     c_bands:  4 eigenvalues not converged
     c_bands:  2 eigenvalues not converged
     ethr =  4.43E-04,  avg # of iterations =  8.4

     negative rho (up, down):  4.942E-02 5.031E-02

     total cpu time spent up to now is      283.0 secs

     total energy              =   -2318.78106073 Ry
     estimated scf accuracy    <      10.38879345 Ry

     total magnetization       =    -1.41 Bohr mag/cell
     absolute magnetization    =     8.19 Bohr mag/cell

     iteration # 23     ecut=    40.00 Ry     beta= 0.40
     Davidson diagonalization with overlap
     ethr =  4.43E-04,  avg # of iterations =  2.1

     negative rho (up, down):  4.160E-02 4.199E-02

     total cpu time spent up to now is      293.2 secs

     total energy              =   -2319.06567290 Ry
     estimated scf accuracy    <       0.46579289 Ry

     total magnetization       =     0.28 Bohr mag/cell
     absolute magnetization    =     7.39 Bohr mag/cell

     iteration # 24     ecut=    40.00 Ry     beta= 0.40
     Davidson diagonalization with overlap
     ethr =  2.74E-04,  avg # of iterations =  1.5

     negative rho (up, down):  3.455E-02 3.712E-02

     total cpu time spent up to now is      302.8 secs

     total energy              =   -2319.06461472 Ry
     estimated scf accuracy    <       0.19691207 Ry

     total magnetization       =     0.28 Bohr mag/cell
     absolute magnetization    =     7.77 Bohr mag/cell

     iteration # 25     ecut=    40.00 Ry     beta= 0.40
     Davidson diagonalization with overlap
     ethr =  1.16E-04,  avg # of iterations =  3.4

     negative rho (up, down):  3.655E-02 3.881E-02

     total cpu time spent up to now is      313.7 secs

     total energy              =   -2319.08375889 Ry
     estimated scf accuracy    <       0.11781019 Ry

     total magnetization       =     0.28 Bohr mag/cell
     absolute magnetization    =     8.22 Bohr mag/cell

     iteration # 26     ecut=    40.00 Ry     beta= 0.40
     Davidson diagonalization with overlap
     c_bands:  1 eigenvalues not converged
     c_bands:  1 eigenvalues not converged
     c_bands:  1 eigenvalues not converged
     ethr =  6.93E-05,  avg # of iterations =  5.1

     negative rho (up, down):  3.359E-02 3.518E-02

     total cpu time spent up to now is      325.9 secs

     total energy              =   -2319.08418486 Ry
     estimated scf accuracy    <       0.08240067 Ry

     total magnetization       =     0.28 Bohr mag/cell
     absolute magnetization    =     8.09 Bohr mag/cell

     iteration # 27     ecut=    40.00 Ry     beta= 0.40
     Davidson diagonalization with overlap
     c_bands:  1 eigenvalues not converged
     ethr =  4.85E-05,  avg # of iterations =  2.8

     negative rho (up, down):  2.113E-02 2.162E-02

     total cpu time spent up to now is      336.5 secs

     total energy              =   -2319.08734893 Ry
     estimated scf accuracy    <       0.03317551 Ry

     total magnetization       =     0.28 Bohr mag/cell
     absolute magnetization    =     8.24 Bohr mag/cell

     iteration # 28     ecut=    40.00 Ry     beta= 0.40
     Davidson diagonalization with overlap
     ethr =  1.95E-05,  avg # of iterations =  7.9

     negative rho (up, down):  2.323E-02 2.404E-02

     total cpu time spent up to now is      352.2 secs

     total energy              =   -2319.09970250 Ry
     estimated scf accuracy    <       0.51785675 Ry

     total magnetization       =     0.38 Bohr mag/cell
     absolute magnetization    =     8.91 Bohr mag/cell

     iteration # 29     ecut=    40.00 Ry     beta= 0.40
     Davidson diagonalization with overlap
     ethr =  1.95E-05,  avg # of iterations =  1.0

     negative rho (up, down):  2.492E-02 2.548E-02

     total cpu time spent up to now is      361.1 secs

     total energy              =   -2319.08939555 Ry
     estimated scf accuracy    <       0.38182113 Ry

     total magnetization       =     0.47 Bohr mag/cell
     absolute magnetization    =     8.80 Bohr mag/cell

     iteration # 30     ecut=    40.00 Ry     beta= 0.40
     Davidson diagonalization with overlap
     ethr =  1.95E-05,  avg # of iterations =  1.8

     negative rho (up, down):  1.081E-02 1.053E-02

     total cpu time spent up to now is      370.8 secs

     total energy              =   -2319.09059388 Ry
     estimated scf accuracy    <       0.02588770 Ry

     total magnetization       =     0.26 Bohr mag/cell
     absolute magnetization    =     8.56 Bohr mag/cell

     iteration # 31     ecut=    40.00 Ry     beta= 0.40
     Davidson diagonalization with overlap
     c_bands:  1 eigenvalues not converged
     c_bands:  1 eigenvalues not converged
     c_bands:  1 eigenvalues not converged
     c_bands:  1 eigenvalues not converged
     c_bands:  3 eigenvalues not converged
     c_bands:  3 eigenvalues not converged
     ethr =  1.52E-05,  avg # of iterations =  8.2

     negative rho (up, down):  6.130E-03 6.298E-03

     total cpu time spent up to now is      386.1 secs

     total energy              =   -2319.09227073 Ry
     estimated scf accuracy    <       0.03466153 Ry

     total magnetization       =     0.28 Bohr mag/cell
     absolute magnetization    =     8.94 Bohr mag/cell

     iteration # 32     ecut=    40.00 Ry     beta= 0.40
     Davidson diagonalization with overlap
     c_bands:  1 eigenvalues not converged
     c_bands:  1 eigenvalues not converged
     c_bands:  1 eigenvalues not converged
     c_bands:  1 eigenvalues not converged
     c_bands:  1 eigenvalues not converged
     c_bands:  2 eigenvalues not converged
     c_bands:  1 eigenvalues not converged
     ethr =  1.52E-05,  avg # of iterations =  8.4

     negative rho (up, down):  6.368E-03 6.365E-03

     total cpu time spent up to now is      401.3 secs

     total energy              =   -2319.09204139 Ry
     estimated scf accuracy    <       0.01390858 Ry

     total magnetization       =     0.30 Bohr mag/cell
     absolute magnetization    =     9.02 Bohr mag/cell

     iteration # 33     ecut=    40.00 Ry     beta= 0.40
     Davidson diagonalization with overlap
     c_bands:  1 eigenvalues not converged
     c_bands:  1 eigenvalues not converged
     c_bands:  1 eigenvalues not converged
     c_bands:  1 eigenvalues not converged
     ethr =  8.18E-06,  avg # of iterations =  8.3

     negative rho (up, down):  5.992E-03 5.934E-03

     total cpu time spent up to now is      416.0 secs

     total energy              =   -2319.09325504 Ry
     estimated scf accuracy    <       0.00805498 Ry

     total magnetization       =     0.24 Bohr mag/cell
     absolute magnetization    =     9.00 Bohr mag/cell

     iteration # 34     ecut=    40.00 Ry     beta= 0.40
     Davidson diagonalization with overlap
     ethr =  4.74E-06,  avg # of iterations =  1.8

     negative rho (up, down):  5.719E-03 5.603E-03

     total cpu time spent up to now is      425.5 secs

     total energy              =   -2319.09331155 Ry
     estimated scf accuracy    <       0.00684359 Ry

     total magnetization       =     0.24 Bohr mag/cell
     absolute magnetization    =     8.98 Bohr mag/cell

     iteration # 35     ecut=    40.00 Ry     beta= 0.40
     Davidson diagonalization with overlap
     c_bands:  1 eigenvalues not converged
     c_bands:  1 eigenvalues not converged
     ethr =  4.03E-06,  avg # of iterations =  2.4

     negative rho (up, down):  5.584E-03 5.735E-03

     total cpu time spent up to now is      435.6 secs

     total energy              =   -2319.09322395 Ry
     estimated scf accuracy    <       0.00662709 Ry

     total magnetization       =     0.24 Bohr mag/cell
     absolute magnetization    =     8.97 Bohr mag/cell

     iteration # 36     ecut=    40.00 Ry     beta= 0.40
     Davidson diagonalization with overlap
     c_bands:  1 eigenvalues not converged
     ethr =  3.90E-06,  avg # of iterations =  3.8

     negative rho (up, down):  5.849E-03 6.007E-03

     total cpu time spent up to now is      446.7 secs

     total energy              =   -2319.09313022 Ry
     estimated scf accuracy    <       0.00331858 Ry

     total magnetization       =     0.25 Bohr mag/cell
     absolute magnetization    =     8.96 Bohr mag/cell

     iteration # 37     ecut=    40.00 Ry     beta= 0.40
     Davidson diagonalization with overlap
     c_bands:  1 eigenvalues not converged
     c_bands:  1 eigenvalues not converged
     c_bands:  1 eigenvalues not converged
     c_bands:  1 eigenvalues not converged
     c_bands:  2 eigenvalues not converged
     ethr =  1.95E-06,  avg # of iterations =  7.9

     negative rho (up, down):  5.987E-03 6.171E-03

     total cpu time spent up to now is      460.9 secs

     total energy              =   -2319.09317705 Ry
     estimated scf accuracy    <       0.00149735 Ry

     total magnetization       =     0.24 Bohr mag/cell
     absolute magnetization    =     8.97 Bohr mag/cell

     iteration # 38     ecut=    40.00 Ry     beta= 0.40
     Davidson diagonalization with overlap
     c_bands:  1 eigenvalues not converged
     c_bands:  1 eigenvalues not converged
     c_bands:  1 eigenvalues not converged
     c_bands:  1 eigenvalues not converged
     ethr =  8.81E-07,  avg # of iterations =  5.2

     negative rho (up, down):  6.540E-03 6.681E-03

     total cpu time spent up to now is      472.8 secs

     total energy              =   -2319.09319920 Ry
     estimated scf accuracy    <       0.00099535 Ry

     total magnetization       =     0.22 Bohr mag/cell
     absolute magnetization    =     8.96 Bohr mag/cell

     iteration # 39     ecut=    40.00 Ry     beta= 0.40
     Davidson diagonalization with overlap
     c_bands:  1 eigenvalues not converged
     ethr =  5.85E-07,  avg # of iterations =  4.0

     negative rho (up, down):  6.416E-03 6.534E-03

     total cpu time spent up to now is      484.1 secs

     total energy              =   -2319.09318986 Ry
     estimated scf accuracy    <       0.00075527 Ry

     total magnetization       =     0.20 Bohr mag/cell
     absolute magnetization    =     8.93 Bohr mag/cell

     iteration # 40     ecut=    40.00 Ry     beta= 0.40
     Davidson diagonalization with overlap
     ethr =  4.44E-07,  avg # of iterations =  3.9

     negative rho (up, down):  7.697E-03 7.810E-03

     total cpu time spent up to now is      495.3 secs

     total energy              =   -2319.09326118 Ry
     estimated scf accuracy    <       0.00026866 Ry

     total magnetization       =     0.18 Bohr mag/cell
     absolute magnetization    =     8.90 Bohr mag/cell

     iteration # 41     ecut=    40.00 Ry     beta= 0.40
     Davidson diagonalization with overlap
     ethr =  1.58E-07,  avg # of iterations =  1.9

     negative rho (up, down):  8.142E-03 8.262E-03

     total cpu time spent up to now is      505.2 secs

     total energy              =   -2319.09333662 Ry
     estimated scf accuracy    <       0.00012859 Ry

     total magnetization       =     0.15 Bohr mag/cell
     absolute magnetization    =     8.86 Bohr mag/cell

     iteration # 42     ecut=    40.00 Ry     beta= 0.40
     Davidson diagonalization with overlap
     ethr =  7.56E-08,  avg # of iterations =  1.7

     negative rho (up, down):  7.950E-03 8.053E-03

     total cpu time spent up to now is      515.0 secs

     total energy              =   -2319.09335919 Ry
     estimated scf accuracy    <       0.00009923 Ry

     total magnetization       =     0.13 Bohr mag/cell
     absolute magnetization    =     8.85 Bohr mag/cell

     iteration # 43     ecut=    40.00 Ry     beta= 0.40
     Davidson diagonalization with overlap
     ethr =  5.84E-08,  avg # of iterations =  1.6

     negative rho (up, down):  7.382E-03 7.502E-03

     total cpu time spent up to now is      524.6 secs

     total energy              =   -2319.09338397 Ry
     estimated scf accuracy    <       0.00003514 Ry

     total magnetization       =     0.12 Bohr mag/cell
     absolute magnetization    =     8.84 Bohr mag/cell

     iteration # 44     ecut=    40.00 Ry     beta= 0.40
     Davidson diagonalization with overlap
     c_bands:  1 eigenvalues not converged
     ethr =  2.07E-08,  avg # of iterations =  4.8

     negative rho (up, down):  7.589E-03 7.717E-03

     total cpu time spent up to now is      537.7 secs

     total energy              =   -2319.09339068 Ry
     estimated scf accuracy    <       0.00000652 Ry

     total magnetization       =     0.10 Bohr mag/cell
     absolute magnetization    =     8.81 Bohr mag/cell

     iteration # 45     ecut=    40.00 Ry     beta= 0.40
     Davidson diagonalization with overlap
     c_bands:  1 eigenvalues not converged
     ethr =  3.83E-09,  avg # of iterations =  6.0

     negative rho (up, down):  7.615E-03 7.743E-03

     total cpu time spent up to now is      552.4 secs

     total energy              =   -2319.09339269 Ry
     estimated scf accuracy    <       0.00000435 Ry

     total magnetization       =     0.09 Bohr mag/cell
     absolute magnetization    =     8.79 Bohr mag/cell

     iteration # 46     ecut=    40.00 Ry     beta= 0.40
     Davidson diagonalization with overlap
     ethr =  2.56E-09,  avg # of iterations =  1.8

     negative rho (up, down):  7.616E-03 7.740E-03

     total cpu time spent up to now is      562.2 secs

     total energy              =   -2319.09339381 Ry
     estimated scf accuracy    <       0.00000077 Ry

     total magnetization       =     0.08 Bohr mag/cell
     absolute magnetization    =     8.79 Bohr mag/cell

     iteration # 47     ecut=    40.00 Ry     beta= 0.40
     Davidson diagonalization with overlap
     ethr =  4.52E-10,  avg # of iterations =  5.4

     negative rho (up, down):  7.619E-03 7.740E-03

     total cpu time spent up to now is      577.5 secs

     total energy              =   -2319.09339504 Ry
     estimated scf accuracy    <       0.00000028 Ry

     total magnetization       =     0.07 Bohr mag/cell
     absolute magnetization    =     8.77 Bohr mag/cell

     iteration # 48     ecut=    40.00 Ry     beta= 0.40
     Davidson diagonalization with overlap
     ethr =  1.65E-10,  avg # of iterations =  4.0

     negative rho (up, down):  7.635E-03 7.755E-03

     total cpu time spent up to now is      591.1 secs

     total energy              =   -2319.09339562 Ry
     estimated scf accuracy    <       0.00000016 Ry

     total magnetization       =     0.06 Bohr mag/cell
     absolute magnetization    =     8.77 Bohr mag/cell

     iteration # 49     ecut=    40.00 Ry     beta= 0.40
     Davidson diagonalization with overlap
     c_bands:  1 eigenvalues not converged
     ethr =  9.62E-11,  avg # of iterations =  4.8

     negative rho (up, down):  7.662E-03 7.782E-03

     total cpu time spent up to now is      607.0 secs

     total energy              =   -2319.09339661 Ry
     estimated scf accuracy    <       0.00000012 Ry

     total magnetization       =     0.05 Bohr mag/cell
     absolute magnetization    =     8.76 Bohr mag/cell

     iteration # 50     ecut=    40.00 Ry     beta= 0.40
     Davidson diagonalization with overlap
     ethr =  7.29E-11,  avg # of iterations =  4.0

     negative rho (up, down):  7.665E-03 7.785E-03

     total cpu time spent up to now is      621.7 secs

     total energy              =   -2319.09339767 Ry
     estimated scf accuracy    <       0.00000011 Ry

     total magnetization       =     0.04 Bohr mag/cell
     absolute magnetization    =     8.74 Bohr mag/cell

     iteration # 51     ecut=    40.00 Ry     beta= 0.40
     Davidson diagonalization with overlap
     ethr =  6.25E-11,  avg # of iterations =  2.9

     negative rho (up, down):  7.672E-03 7.792E-03

     total cpu time spent up to now is      633.9 secs

     total energy              =   -2319.09339825 Ry
     estimated scf accuracy    <       0.00000010 Ry

     total magnetization       =     0.03 Bohr mag/cell
     absolute magnetization    =     8.74 Bohr mag/cell

     iteration # 52     ecut=    40.00 Ry     beta= 0.40
     Davidson diagonalization with overlap
     ethr =  6.02E-11,  avg # of iterations =  4.0

     negative rho (up, down):  7.675E-03 7.794E-03

     total cpu time spent up to now is      648.4 secs

     total energy              =   -2319.09339910 Ry
     estimated scf accuracy    <       0.00000010 Ry

     total magnetization       =     0.02 Bohr mag/cell
     absolute magnetization    =     8.73 Bohr mag/cell

     iteration # 53     ecut=    40.00 Ry     beta= 0.40
     Davidson diagonalization with overlap
     ethr =  5.89E-11,  avg # of iterations =  2.1

     negative rho (up, down):  7.675E-03 7.794E-03
 
     Magnetic moment per site  (integrated on atomic sphere of radius R)
     atom   1 (R=0.157)  charge= 12.0921  magn= -3.4310
     atom   2 (R=0.157)  charge= 12.0847  magn=  3.4283
     atom   3 (R=0.157)  charge=  4.9778  magn=  0.0012
     atom   4 (R=0.157)  charge=  4.9778  magn=  0.0012
     atom   5 (R=0.157)  charge=  4.9778  magn=  0.0012
     atom   6 (R=0.157)  charge=  4.9744  magn= -0.0041
     atom   7 (R=0.157)  charge=  4.9744  magn= -0.0041
     atom   8 (R=0.157)  charge=  4.9744  magn= -0.0041
     atom   9 (R=0.157)  charge= 10.0836  magn= -0.0014
     atom  10 (R=0.157)  charge=  4.0074  magn=  0.0005
     atom  11 (R=0.157)  charge=  4.0120  magn=  0.0039
     atom  12 (R=0.157)  charge= 10.0834  magn=  0.0038
     atom  13 (R=0.157)  charge=  4.0074  magn=  0.0005
     atom  14 (R=0.157)  charge=  4.0120  magn=  0.0039
     atom  15 (R=0.157)  charge= 10.0834  magn=  0.0038
     atom  16 (R=0.157)  charge=  4.0072  magn= -0.0001
     atom  17 (R=0.157)  charge=  4.0067  magn= -0.0027
     atom  18 (R=0.157)  charge= 10.0834  magn=  0.0038
     atom  19 (R=0.157)  charge=  4.0074  magn=  0.0005
     atom  20 (R=0.157)  charge=  4.0120  magn=  0.0039

     total cpu time spent up to now is      659.3 secs

     End of self-consistent calculation
 --- enter write_ns ---
 LDA+U parameters:
U( 1)     =  5.17010000
atom    1   Tr[ns(na)] (up, down, total) =   0.42533  4.17854  4.60386
   spin  1
    eigenvalues: 
  0.029  0.033  0.033  0.165  0.165
    eigenvectors:
  1.000  0.000  0.000  0.000  0.000
  0.000  0.251  0.114  0.586  0.049
  0.000  0.114  0.251  0.049  0.586
  0.000  0.430  0.205  0.335  0.030
  0.000  0.205  0.430  0.030  0.335
    occupations:
  0.029  0.000  0.000  0.000  0.000
  0.000  0.117 -0.000 -0.063 -0.001
  0.000 -0.000  0.117 -0.001  0.063
  0.000 -0.063 -0.001  0.081 -0.000
  0.000 -0.001  0.063 -0.000  0.081
   spin  2
    eigenvalues: 
  0.600  0.600  0.993  0.993  0.993
    eigenvectors:
  0.000  0.000  0.000  0.000  1.000
  0.608  0.039  0.244  0.109  0.000
  0.039  0.608  0.109  0.244  0.000
  0.329  0.024  0.439  0.208  0.000
  0.024  0.329  0.208  0.439  0.000
    occupations:
  0.993  0.000 -0.000  0.000  0.000
  0.000  0.738  0.000  0.188  0.003
 -0.000  0.000  0.738  0.003 -0.188
  0.000  0.188  0.003  0.854 -0.000
  0.000  0.003 -0.188 -0.000  0.854
atomic mag. moment =  -3.75321
atom    2   Tr[ns(na)] (up, down, total) =   4.17411  0.42310  4.59721
   spin  1
    eigenvalues: 
  0.597  0.597  0.993  0.993  0.993
    eigenvectors:
  0.000  0.000  0.000  0.000  1.000
  0.595  0.052  0.237  0.115  0.000
  0.052  0.595  0.115  0.237  0.000
  0.326  0.026  0.444  0.204  0.000
  0.026  0.326  0.204  0.444  0.000
    occupations:
  0.993  0.000 -0.000  0.000  0.000
  0.000  0.737  0.000  0.189 -0.002
 -0.000  0.000  0.737 -0.002 -0.189
  0.000  0.189 -0.002  0.854 -0.000
  0.000 -0.002 -0.189 -0.000  0.854
   spin  2
    eigenvalues: 
  0.028  0.033  0.033  0.164  0.164
    eigenvectors:
  1.000  0.000  0.000  0.000  0.000
  0.000  0.245  0.120  0.574  0.060
  0.000  0.120  0.245  0.060  0.574
  0.000  0.433  0.202  0.333  0.032
  0.000  0.202  0.433  0.032  0.333
    occupations:
  0.028  0.000  0.000  0.000  0.000
  0.000  0.116 -0.000 -0.063  0.001
  0.000 -0.000  0.116  0.001  0.063
  0.000 -0.063  0.001  0.081 -0.000
  0.000  0.001  0.063 -0.000  0.081
atomic mag. moment =   3.75101
N of occupied +U levels =    9.201074
 --- exit write_ns ---

 ------ SPIN UP ------------


          k = 0.0000 0.0000 0.0000 ( 31669 PWs)   bands (ev):

   -73.6894 -69.8287 -55.0885 -55.0636 -55.0636 -55.0584 -45.0141 -45.0141
   -45.0126 -41.2221 -41.2221 -41.1870 -31.3498 -31.3365 -31.3365 -31.1873
   -31.1222 -31.1222 -31.1199 -31.1185 -31.1185 -31.1111 -31.0485 -31.0485
   -15.2108 -14.6354 -14.6354 -14.6177 -14.4390 -14.4390 -13.8204 -12.8659
   -12.3283 -12.3283 -12.3093 -12.1639 -12.1558 -12.1558  -5.3688  -5.2479
    -5.2477  -5.2477  -5.1568  -5.1568  -5.1078  -4.8214  -4.3741  -4.3741
    -4.3579  -3.8717  -3.8717  -3.7649  -3.7406  -3.7406  -3.6892  -3.5785
    -3.5785  -3.4881  -2.8736  -2.8736  -2.4912  -2.4613  -2.4613  -2.4456
    -2.4313  -2.4313  -2.2035  -2.0662  -1.8479  -1.8479  -1.6918  -1.6849
    -1.6849  -1.6322  -1.6322  -1.4963  -1.4963  -1.3157  -0.8522  -0.8522
    -0.7283  -0.7123  -0.7123  -0.3907  -0.3651  -0.3651   0.1872   0.1872
     0.3997   2.5860   2.5860   2.5973   2.9428   2.9428   2.9656   2.9681
     2.9681   3.0814   3.0814   3.6799   3.6799   3.7205

          k = 0.0000 0.0000-0.1248 ( 31676 PWs)   bands (ev):

   -73.6894 -69.8287 -55.0885 -55.0636 -55.0636 -55.0584 -45.0141 -45.0141
   -45.0126 -41.2221 -41.2221 -41.1870 -31.3498 -31.3365 -31.3365 -31.1874
   -31.1222 -31.1222 -31.1199 -31.1184 -31.1184 -31.1111 -31.0486 -31.0486
   -15.2108 -14.6354 -14.6354 -14.6177 -14.4390 -14.4390 -13.8204 -12.8659
   -12.3283 -12.3283 -12.3093 -12.1639 -12.1558 -12.1558  -5.3688  -5.2479
    -5.2477  -5.2477  -5.1568  -5.1568  -5.1078  -4.8214  -4.3741  -4.3741
    -4.3579  -3.8717  -3.8717  -3.7649  -3.7406  -3.7406  -3.6892  -3.5785
    -3.5785  -3.4881  -2.8736  -2.8736  -2.4912  -2.4613  -2.4613  -2.4456
    -2.4313  -2.4313  -2.2035  -2.0662  -1.8480  -1.8480  -1.6918  -1.6849
    -1.6849  -1.6322  -1.6322  -1.4963  -1.4963  -1.3157  -0.8522  -0.8522
    -0.7283  -0.7123  -0.7123  -0.3907  -0.3651  -0.3651   0.1872   0.1872
     0.3997   2.5860   2.5860   2.5973   2.9427   2.9427   2.9656   2.9681
     2.9681   3.0814   3.0814   3.6799   3.6799   3.7203

          k = 0.0000 0.1925 0.0000 ( 31709 PWs)   bands (ev):

   -73.6894 -69.8287 -55.0868 -55.0649 -55.0636 -55.0588 -45.0141 -45.0141
   -45.0126 -41.2221 -41.2221 -41.1870 -31.3375 -31.3258 -31.3195 -31.1830
   -31.1300 -31.1260 -31.1256 -31.1218 -31.1204 -31.1108 -31.0685 -31.0530
   -15.1768 -14.6721 -14.6436 -14.6037 -14.4461 -14.4427 -13.7371 -12.8263
   -12.4466 -12.3341 -12.3195 -12.2175 -12.1606 -12.1533  -5.3357  -5.1711
    -5.1487  -5.1114  -5.1042  -5.0543  -4.9973  -4.7834  -4.3447  -4.3385
    -4.1986  -3.9686  -3.9226  -3.8167  -3.7435  -3.6711  -3.6372  -3.5302
    -3.5142  -3.4739  -2.9029  -2.8429  -2.5696  -2.5558  -2.4616  -2.4198
    -2.3856  -2.3538  -2.1949  -2.1222  -2.0162  -1.8112  -1.7649  -1.7310
    -1.6819  -1.6361  -1.6047  -1.5465  -1.5127  -1.4851  -1.2798  -1.2490
    -1.0110  -0.7789  -0.7648  -0.4751  -0.1625  -0.1522   0.1474   0.1782
     0.3513   2.5318   2.5545   2.5750   2.7502   2.7929   2.8048   2.9531
     2.9621   2.9842   3.1109   3.6154   3.6905   3.7494

          k = 0.0000 0.1925-0.1248 ( 31680 PWs)   bands (ev):

   -73.6894 -69.8287 -55.0868 -55.0649 -55.0636 -55.0588 -45.0141 -45.0141
   -45.0126 -41.2221 -41.2221 -41.1870 -31.3375 -31.3258 -31.3195 -31.1829
   -31.1300 -31.1260 -31.1256 -31.1218 -31.1204 -31.1108 -31.0685 -31.0530
   -15.1768 -14.6721 -14.6436 -14.6037 -14.4461 -14.4427 -13.7371 -12.8263
   -12.4466 -12.3341 -12.3195 -12.2175 -12.1606 -12.1533  -5.3357  -5.1711
    -5.1487  -5.1114  -5.1042  -5.0543  -4.9973  -4.7834  -4.3447  -4.3385
    -4.1986  -3.9686  -3.9226  -3.8167  -3.7435  -3.6711  -3.6372  -3.5302
    -3.5142  -3.4739  -2.9029  -2.8429  -2.5696  -2.5558  -2.4616  -2.4198
    -2.3856  -2.3538  -2.1949  -2.1222  -2.0162  -1.8112  -1.7649  -1.7310
    -1.6819  -1.6361  -1.6047  -1.5465  -1.5127  -1.4851  -1.2798  -1.2490
    -1.0110  -0.7789  -0.7648  -0.4751  -0.1625  -0.1522   0.1474   0.1782
     0.3513   2.5318   2.5545   2.5750   2.7502   2.7929   2.8048   2.9531
     2.9621   2.9842   3.1109   3.6154   3.6904   3.7494

          k = 0.0000 0.3849 0.0000 ( 31728 PWs)   bands (ev):

   -73.6894 -69.8287 -55.0821 -55.0691 -55.0636 -55.0594 -45.0141 -45.0141
   -45.0126 -41.2221 -41.2221 -41.1870 -31.3106 -31.2995 -31.2689 -31.1709
   -31.1565 -31.1521 -31.1378 -31.1227 -31.1217 -31.1204 -31.0997 -31.0649
   -15.0865 -14.7680 -14.6589 -14.5695 -14.4667 -14.4507 -13.5003 -12.7633
   -12.7133 -12.3662 -12.3453 -12.3280 -12.1595 -12.1488  -5.3182  -5.1137
    -5.1063  -4.7983  -4.7803  -4.7391  -4.6455  -4.5878  -4.2787  -4.2723
    -4.1049  -3.9870  -3.8715  -3.8386  -3.7129  -3.6652  -3.5202  -3.4779
    -3.4296  -3.3585  -2.9548  -2.8499  -2.7784  -2.7226  -2.7055  -2.5223
    -2.4239  -2.3378  -2.2484  -2.1583  -2.1124  -2.0860  -2.0233  -1.9922
    -1.8979  -1.7059  -1.6198  -1.5625  -1.5417  -1.5225  -1.4758  -1.4116
    -1.3775  -0.9475  -0.8780  -0.5394  -0.0620  -0.0330   0.0635   0.1345
     0.1689   2.3740   2.4271   2.4615   2.4727   2.5138   2.6843   2.7399
     2.9942   3.0083   3.3380   3.3828   3.3994   3.4872

          k = 0.0000 0.3849-0.1248 ( 31716 PWs)   bands (ev):

   -73.6894 -69.8287 -55.0821 -55.0691 -55.0636 -55.0594 -45.0141 -45.0141
   -45.0126 -41.2221 -41.2221 -41.1870 -31.3106 -31.2995 -31.2689 -31.1709
   -31.1565 -31.1521 -31.1378 -31.1227 -31.1218 -31.1205 -31.0997 -31.0649
   -15.0865 -14.7680 -14.6589 -14.5695 -14.4667 -14.4507 -13.5003 -12.7633
   -12.7133 -12.3662 -12.3453 -12.3280 -12.1595 -12.1488  -5.3182  -5.1137
    -5.1063  -4.7983  -4.7803  -4.7391  -4.6455  -4.5878  -4.2787  -4.2723
    -4.1049  -3.9870  -3.8715  -3.8386  -3.7129  -3.6652  -3.5202  -3.4779
    -3.4296  -3.3585  -2.9548  -2.8499  -2.7784  -2.7226  -2.7055  -2.5223
    -2.4239  -2.3378  -2.2484  -2.1583  -2.1124  -2.0860  -2.0233  -1.9922
    -1.8979  -1.7059  -1.6198  -1.5625  -1.5417  -1.5225  -1.4758  -1.4116
    -1.3775  -0.9475  -0.8780  -0.5394  -0.0620  -0.0330   0.0635   0.1345
     0.1689   2.3740   2.4271   2.4615   2.4727   2.5138   2.6843   2.7399
     2.9942   3.0083   3.3380   3.3828   3.3994   3.4871

          k = 0.0000-0.5774 0.0000 ( 31730 PWs)   bands (ev):

   -73.6894 -69.8287 -55.0768 -55.0742 -55.0636 -55.0595 -45.0141 -45.0141
   -45.0126 -41.2221 -41.2221 -41.1870 -31.2936 -31.2817 -31.2011 -31.1949
   -31.1717 -31.1690 -31.1551 -31.1536 -31.1219 -31.1205 -31.0877 -31.0771
   -15.0067 -14.8508 -14.6661 -14.5428 -14.4868 -14.4548 -13.1550 -13.1472
   -12.5502 -12.5457 -12.3509 -12.3332 -12.1587 -12.1466  -5.3235  -5.0865
    -5.0730  -4.6467  -4.5627  -4.5251  -4.4205  -4.3847  -4.2377  -4.2280
    -4.1424  -4.0389  -3.8853  -3.8588  -3.5447  -3.4855  -3.4640  -3.4016
    -3.3483  -3.2855  -3.0962  -3.0369  -2.9607  -2.8552  -2.8076  -2.7369
    -2.5673  -2.5497  -2.4250  -2.4132  -2.2786  -2.0608  -1.9532  -1.9330
    -1.8089  -1.8034  -1.7269  -1.6432  -1.5308  -1.4704  -1.4280  -1.2340
    -1.2212  -1.1812  -1.1528  -0.3006  -0.2872  -0.0368  -0.0047   0.1053
     0.1222   2.2955   2.3230   2.3583   2.4022   2.5146   2.5482   2.9393
     2.9495   3.0199   3.0348   3.1686   3.1882   3.6949

          k = 0.0000-0.5774-0.1248 ( 31748 PWs)   bands (ev):

   -73.6894 -69.8287 -55.0768 -55.0742 -55.0636 -55.0595 -45.0141 -45.0141
   -45.0126 -41.2221 -41.2221 -41.1870 -31.2936 -31.2817 -31.2011 -31.1949
   -31.1717 -31.1690 -31.1551 -31.1536 -31.1220 -31.1205 -31.0877 -31.0771
   -15.0068 -14.8508 -14.6661 -14.5428 -14.4868 -14.4548 -13.1550 -13.1472
   -12.5502 -12.5457 -12.3509 -12.3332 -12.1587 -12.1466  -5.3235  -5.0865
    -5.0730  -4.6467  -4.5627  -4.5251  -4.4205  -4.3847  -4.2377  -4.2280
    -4.1424  -4.0389  -3.8853  -3.8588  -3.5447  -3.4855  -3.4640  -3.4016
    -3.3483  -3.2855  -3.0962  -3.0369  -2.9607  -2.8552  -2.8076  -2.7369
    -2.5673  -2.5497  -2.4250  -2.4132  -2.2786  -2.0608  -1.9532  -1.9330
    -1.8089  -1.8034  -1.7269  -1.6432  -1.5308  -1.4704  -1.4280  -1.2340
    -1.2212  -1.1812  -1.1528  -0.3006  -0.2872  -0.0368  -0.0047   0.1053
     0.1222   2.2955   2.3230   2.3583   2.4022   2.5146   2.5482   2.9393
     2.9495   3.0199   3.0348   3.1686   3.1882   3.6958

          k = 0.1667 0.2887 0.0000 ( 31761 PWs)   bands (ev):

   -73.6894 -69.8287 -55.0836 -55.0669 -55.0647 -55.0589 -45.0141 -45.0141
   -45.0126 -41.2221 -41.2221 -41.1870 -31.3196 -31.2981 -31.2922 -31.1748
   -31.1620 -31.1302 -31.1290 -31.1208 -31.1171 -31.1150 -31.1038 -31.0623
   -15.1140 -14.7347 -14.6600 -14.5797 -14.4595 -14.4486 -13.5769 -12.7501
   -12.5586 -12.5482 -12.2679 -12.2627 -12.2288 -12.0993  -5.3021  -5.1482
    -5.1150  -4.9019  -4.8351  -4.7782  -4.7717  -4.6958  -4.4497  -4.1279
    -4.0026  -3.9869  -3.9178  -3.8293  -3.7941  -3.6758  -3.5785  -3.4922
    -3.4646  -3.4080  -2.9507  -2.7918  -2.6848  -2.5751  -2.5554  -2.5175
    -2.4494  -2.3784  -2.3275  -2.2004  -2.1405  -2.0382  -1.9461  -1.8265
    -1.7139  -1.6481  -1.6258  -1.5823  -1.5688  -1.4359  -1.4050  -1.4024
    -1.3039  -1.2887  -0.7139  -0.3211  -0.3111   0.0491   0.1226   0.1700
     0.2213   2.3885   2.3930   2.4500   2.4613   2.6180   2.7678   2.7757
     2.7993   3.1777   3.4127   3.4200   3.4341   3.5417

          k = 0.1667 0.2887-0.1248 ( 31722 PWs)   bands (ev):

   -73.6894 -69.8287 -55.0836 -55.0669 -55.0647 -55.0589 -45.0141 -45.0141
   -45.0126 -41.2221 -41.2221 -41.1870 -31.3196 -31.2981 -31.2922 -31.1747
   -31.1620 -31.1302 -31.1290 -31.1208 -31.1171 -31.1150 -31.1038 -31.0623
   -15.1140 -14.7347 -14.6600 -14.5797 -14.4595 -14.4486 -13.5769 -12.7501
   -12.5586 -12.5482 -12.2679 -12.2627 -12.2288 -12.0993  -5.3021  -5.1482
    -5.1150  -4.9019  -4.8351  -4.7782  -4.7717  -4.6958  -4.4497  -4.1279
    -4.0026  -3.9869  -3.9178  -3.8293  -3.7941  -3.6758  -3.5785  -3.4922
    -3.4646  -3.4080  -2.9507  -2.7918  -2.6848  -2.5751  -2.5554  -2.5175
    -2.4493  -2.3784  -2.3275  -2.2004  -2.1405  -2.0382  -1.9461  -1.8265
    -1.7139  -1.6481  -1.6258  -1.5823  -1.5688  -1.4359  -1.4050  -1.4024
    -1.3039  -1.2887  -0.7139  -0.3211  -0.3111   0.0491   0.1226   0.1700
     0.2213   2.3885   2.3930   2.4500   2.4613   2.6180   2.7678   2.7757
     2.7993   3.1777   3.4127   3.4200   3.4341   3.5417

          k = 0.1667 0.4811 0.0000 ( 31805 PWs)   bands (ev):

   -73.6894 -69.8287 -55.0781 -55.0714 -55.0661 -55.0585 -45.0141 -45.0141
   -45.0126 -41.2221 -41.2221 -41.1870 -31.2932 -31.2684 -31.2366 -31.2002
   -31.1665 -31.1604 -31.1439 -31.1330 -31.1317 -31.1151 -31.1006 -31.0787
   -15.0131 -14.8346 -14.6776 -14.5456 -14.4817 -14.4555 -13.2832 -12.9118
   -12.6185 -12.6080 -12.4338 -12.2906 -12.1769 -12.0636  -5.2784  -5.1186
    -5.0742  -4.6752  -4.5321  -4.4909  -4.4789  -4.4567  -4.3674  -4.1980
    -3.9399  -3.9058  -3.8589  -3.7639  -3.6492  -3.6111  -3.4969  -3.4330
    -3.3767  -3.3078  -3.2236  -2.9513  -2.9161  -2.8601  -2.7593  -2.7182
    -2.6690  -2.4543  -2.4290  -2.3439  -2.2566  -2.0650  -1.9871  -1.9180
    -1.8878  -1.8524  -1.7582  -1.6976  -1.5731  -1.5219  -1.4190  -1.3075
    -1.2067  -1.1343  -0.8401  -0.3641  -0.2338  -0.1249   0.0887   0.1469
     0.2564   2.1940   2.2158   2.2240   2.2534   2.6145   2.6363   2.6835
     2.8287   3.0138   3.0770   3.2237   3.3617   3.6971

          k = 0.1667 0.4811-0.1248 ( 31782 PWs)   bands (ev):

   -73.6894 -69.8287 -55.0781 -55.0714 -55.0661 -55.0585 -45.0141 -45.0141
   -45.0126 -41.2221 -41.2221 -41.1870 -31.2932 -31.2684 -31.2365 -31.2002
   -31.1665 -31.1604 -31.1439 -31.1330 -31.1317 -31.1151 -31.1006 -31.0786
   -15.0131 -14.8346 -14.6776 -14.5456 -14.4817 -14.4555 -13.2832 -12.9118
   -12.6185 -12.6080 -12.4338 -12.2906 -12.1769 -12.0636  -5.2784  -5.1186
    -5.0742  -4.6752  -4.5321  -4.4909  -4.4789  -4.4567  -4.3674  -4.1980
    -3.9399  -3.9058  -3.8589  -3.7639  -3.6492  -3.6111  -3.4969  -3.4330
    -3.3767  -3.3078  -3.2236  -2.9513  -2.9161  -2.8601  -2.7593  -2.7182
    -2.6690  -2.4543  -2.4290  -2.3439  -2.2566  -2.0650  -1.9871  -1.9180
    -1.8878  -1.8524  -1.7582  -1.6976  -1.5730  -1.5219  -1.4190  -1.3075
    -1.2067  -1.1343  -0.8401  -0.3641  -0.2338  -0.1249   0.0887   0.1469
     0.2564   2.1940   2.2158   2.2241   2.2534   2.6145   2.6363   2.6835
     2.8287   3.0138   3.0770   3.2237   3.3617   3.6970

          k = 0.3333 0.5774 0.0000 ( 31791 PWs)   bands (ev):

   -73.6894 -69.8287 -55.0738 -55.0731 -55.0693 -55.0579 -45.0141 -45.0141
   -45.0126 -41.2221 -41.2221 -41.1870 -31.2725 -31.2345 -31.2230 -31.2184
   -31.2148 -31.1473 -31.1461 -31.1448 -31.1147 -31.1123 -31.1008 -31.0999
   -14.9202 -14.9186 -14.6934 -14.5296 -14.4910 -14.4592 -12.9706 -12.9680
   -12.9568 -12.4605 -12.4598 -12.4535 -12.1198 -12.0270  -5.2207  -5.1332
    -5.0709  -4.6676  -4.5792  -4.3485  -4.2863  -4.2586  -4.2037  -4.1528
    -3.9247  -3.8840  -3.7683  -3.6712  -3.6628  -3.6351  -3.5795  -3.5793
    -3.4256  -3.2039  -3.1531  -3.1166  -3.1087  -2.8440  -2.8044  -2.6731
    -2.6559  -2.6521  -2.5662  -2.4531  -2.3404  -2.3305  -2.0222  -1.9188
    -1.9055  -1.7800  -1.7721  -1.5764  -1.5519  -1.5206  -1.5179  -1.5030
    -0.9467  -0.9141  -0.8973  -0.2837  -0.2758  -0.2731   0.0791   0.1573
     0.4342   2.0260   2.0810   2.0816   2.0855   2.6770   2.6791   2.6901
     2.7773   2.7839   2.7993   3.1366   3.5703   3.7037

          k = 0.3333 0.5774-0.1248 ( 31812 PWs)   bands (ev):

   -73.6894 -69.8287 -55.0738 -55.0731 -55.0693 -55.0579 -45.0141 -45.0141
   -45.0126 -41.2221 -41.2221 -41.1870 -31.2725 -31.2344 -31.2230 -31.2184
   -31.2148 -31.1474 -31.1462 -31.1449 -31.1147 -31.1123 -31.1008 -31.1000
   -14.9202 -14.9186 -14.6934 -14.5296 -14.4910 -14.4592 -12.9706 -12.9680
   -12.9569 -12.4605 -12.4598 -12.4535 -12.1198 -12.0270  -5.2207  -5.1332
    -5.0709  -4.6676  -4.5792  -4.3485  -4.2863  -4.2586  -4.2037  -4.1528
    -3.9247  -3.8840  -3.7683  -3.6712  -3.6628  -3.6351  -3.5795  -3.5793
    -3.4256  -3.2039  -3.1531  -3.1166  -3.1087  -2.8440  -2.8044  -2.6731
    -2.6559  -2.6521  -2.5662  -2.4531  -2.3404  -2.3305  -2.0222  -1.9188
    -1.9055  -1.7800  -1.7721  -1.5764  -1.5519  -1.5206  -1.5179  -1.5030
    -0.9467  -0.9141  -0.8973  -0.2837  -0.2758  -0.2731   0.0791   0.1573
     0.4342   2.0260   2.0810   2.0816   2.0855   2.6770   2.6791   2.6901
     2.7773   2.7839   2.7993   3.1366   3.5703   3.7036

          k = 0.1667-0.4811 0.0000 ( 31805 PWs)   bands (ev):

   -73.6894 -69.8287 -55.0781 -55.0714 -55.0661 -55.0585 -45.0141 -45.0141
   -45.0126 -41.2221 -41.2221 -41.1870 -31.2932 -31.2685 -31.2365 -31.2004
   -31.1663 -31.1604 -31.1439 -31.1331 -31.1317 -31.1151 -31.1005 -31.0787
   -15.0131 -14.8346 -14.6776 -14.5456 -14.4817 -14.4555 -13.2832 -12.9118
   -12.6178 -12.6087 -12.4338 -12.2907 -12.1769 -12.0636  -5.2789  -5.1167
    -5.0753  -4.6767  -4.5317  -4.4908  -4.4744  -4.4625  -4.3654  -4.1931
    -3.9501  -3.9255  -3.8186  -3.7578  -3.7083  -3.5691  -3.5187  -3.4059
    -3.3563  -3.3297  -3.2250  -2.9684  -2.9263  -2.8373  -2.7510  -2.7327
    -2.6586  -2.4929  -2.4197  -2.3082  -2.2665  -2.0680  -1.9767  -1.9260
    -1.8934  -1.8499  -1.7530  -1.7002  -1.5775  -1.5198  -1.4191  -1.3084
    -1.2052  -1.1342  -0.8404  -0.3637  -0.2350  -0.1235   0.0843   0.1510
     0.2562   2.1966   2.2102   2.2265   2.2539   2.6161   2.6338   2.6838
     2.8291   3.0158   3.0746   3.2242   3.3626   3.6916

          k = 0.1667-0.4811 0.1248 ( 31782 PWs)   bands (ev):

   -73.6894 -69.8287 -55.0781 -55.0714 -55.0661 -55.0585 -45.0141 -45.0141
   -45.0126 -41.2221 -41.2221 -41.1870 -31.2932 -31.2685 -31.2364 -31.2004
   -31.1663 -31.1604 -31.1439 -31.1331 -31.1317 -31.1152 -31.1005 -31.0786
   -15.0131 -14.8346 -14.6776 -14.5456 -14.4817 -14.4555 -13.2832 -12.9118
   -12.6178 -12.6087 -12.4337 -12.2907 -12.1769 -12.0636  -5.2789  -5.1167
    -5.0753  -4.6767  -4.5317  -4.4908  -4.4744  -4.4625  -4.3654  -4.1931
    -3.9501  -3.9255  -3.8186  -3.7578  -3.7083  -3.5691  -3.5187  -3.4059
    -3.3563  -3.3297  -3.2250  -2.9684  -2.9263  -2.8373  -2.7510  -2.7327
    -2.6586  -2.4929  -2.4197  -2.3082  -2.2665  -2.0680  -1.9767  -1.9260
    -1.8934  -1.8499  -1.7530  -1.7002  -1.5775  -1.5198  -1.4191  -1.3084
    -1.2052  -1.1342  -0.8404  -0.3637  -0.2350  -0.1235   0.0843   0.1510
     0.2562   2.1966   2.2102   2.2265   2.2539   2.6161   2.6338   2.6838
     2.8291   3.0158   3.0746   3.2242   3.3626   3.6916

 ------ SPIN DOWN ----------


          k = 0.0000 0.0000 0.0000 ( 31669 PWs)   bands (ev):

   -73.6281 -69.8916 -55.0853 -55.0597 -55.0597 -55.0577 -44.9549 -44.9549
   -44.9529 -41.2826 -41.2826 -41.2490 -31.3430 -31.3339 -31.3339 -31.1851
   -31.1216 -31.1179 -31.1179 -31.1138 -31.1138 -31.1083 -31.0450 -31.0450
   -15.2120 -14.6358 -14.6358 -14.6202 -14.4431 -14.4431 -13.8186 -12.8645
   -12.3248 -12.3248 -12.3098 -12.1641 -12.1540 -12.1540  -5.3444  -5.2556
    -5.2556  -5.2512  -5.1197  -5.1140  -5.1140  -4.8042  -4.3735  -4.3735
    -4.3565  -3.9248  -3.9248  -3.7530  -3.7530  -3.7342  -3.6968  -3.4890
    -3.4794  -3.4794  -2.8739  -2.8739  -2.4863  -2.4606  -2.4606  -2.4400
    -2.4232  -2.4232  -2.2039  -2.0677  -1.8444  -1.8444  -1.7003  -1.7003
    -1.6934  -1.6576  -1.6576  -1.4815  -1.4815  -1.3148  -0.8502  -0.8502
    -0.7261  -0.7110  -0.7110  -0.3839  -0.3749  -0.3749   0.2498   0.2498
     0.4015   2.5920   2.5920   2.6010   2.9449   2.9449   2.9649   2.9715
     2.9715   3.0844   3.0844   3.6999   3.7000   3.7149

          k = 0.0000 0.0000-0.1248 ( 31676 PWs)   bands (ev):

   -73.6281 -69.8916 -55.0853 -55.0596 -55.0596 -55.0577 -44.9549 -44.9549
   -44.9529 -41.2826 -41.2826 -41.2490 -31.3430 -31.3339 -31.3339 -31.1852
   -31.1216 -31.1179 -31.1179 -31.1137 -31.1137 -31.1083 -31.0450 -31.0450
   -15.2120 -14.6358 -14.6358 -14.6202 -14.4431 -14.4431 -13.8186 -12.8645
   -12.3248 -12.3248 -12.3098 -12.1641 -12.1540 -12.1540  -5.3444  -5.2556
    -5.2556  -5.2512  -5.1197  -5.1140  -5.1140  -4.8042  -4.3735  -4.3735
    -4.3565  -3.9248  -3.9248  -3.7530  -3.7530  -3.7342  -3.6968  -3.4890
    -3.4794  -3.4794  -2.8739  -2.8739  -2.4863  -2.4606  -2.4606  -2.4400
    -2.4232  -2.4232  -2.2039  -2.0677  -1.8444  -1.8444  -1.7003  -1.7003
    -1.6934  -1.6576  -1.6576  -1.4815  -1.4815  -1.3148  -0.8502  -0.8502
    -0.7261  -0.7110  -0.7110  -0.3839  -0.3749  -0.3749   0.2498   0.2498
     0.4015   2.5921   2.5921   2.6010   2.9449   2.9449   2.9649   2.9715
     2.9715   3.0844   3.0844   3.6999   3.7000   3.7149

          k = 0.0000 0.1925 0.0000 ( 31709 PWs)   bands (ev):

   -73.6281 -69.8916 -55.0836 -55.0611 -55.0597 -55.0580 -44.9549 -44.9549
   -44.9529 -41.2826 -41.2826 -41.2490 -31.3310 -31.3232 -31.3165 -31.1808
   -31.1252 -31.1241 -31.1219 -31.1194 -31.1176 -31.1071 -31.0650 -31.0494
   -15.1781 -14.6724 -14.6440 -14.6066 -14.4499 -14.4468 -13.7353 -12.8248
   -12.4444 -12.3308 -12.3187 -12.2164 -12.1598 -12.1516  -5.3159  -5.1632
    -5.1424  -5.1040  -5.0774  -5.0362  -5.0028  -4.7703  -4.3429  -4.3369
    -4.2000  -3.9882  -3.9503  -3.8372  -3.7150  -3.6847  -3.6489  -3.4844
    -3.4455  -3.4362  -2.8971  -2.8415  -2.5665  -2.5516  -2.4636  -2.4166
    -2.3839  -2.3507  -2.1941  -2.1178  -2.0192  -1.8138  -1.7617  -1.7392
    -1.6927  -1.6400  -1.6268  -1.5522  -1.4995  -1.4859  -1.2785  -1.2491
    -1.0091  -0.7776  -0.7643  -0.4767  -0.1659  -0.1495   0.1964   0.2353
     0.3635   2.5371   2.5600   2.5801   2.7523   2.7963   2.8069   2.9575
     2.9647   2.9862   3.1133   3.6325   3.6674   3.7152

          k = 0.0000 0.1925-0.1248 ( 31680 PWs)   bands (ev):

   -73.6281 -69.8916 -55.0836 -55.0611 -55.0597 -55.0580 -44.9549 -44.9549
   -44.9529 -41.2826 -41.2826 -41.2490 -31.3310 -31.3232 -31.3165 -31.1808
   -31.1252 -31.1241 -31.1219 -31.1194 -31.1177 -31.1071 -31.0649 -31.0494
   -15.1781 -14.6724 -14.6440 -14.6066 -14.4499 -14.4468 -13.7353 -12.8248
   -12.4444 -12.3308 -12.3187 -12.2164 -12.1598 -12.1516  -5.3159  -5.1632
    -5.1424  -5.1040  -5.0774  -5.0362  -5.0028  -4.7703  -4.3429  -4.3369
    -4.2000  -3.9882  -3.9503  -3.8372  -3.7150  -3.6847  -3.6489  -3.4844
    -3.4455  -3.4362  -2.8971  -2.8415  -2.5665  -2.5516  -2.4636  -2.4166
    -2.3839  -2.3507  -2.1941  -2.1178  -2.0192  -1.8138  -1.7617  -1.7392
    -1.6927  -1.6400  -1.6268  -1.5522  -1.4995  -1.4859  -1.2785  -1.2491
    -1.0091  -0.7776  -0.7643  -0.4767  -0.1659  -0.1495   0.1964   0.2353
     0.3635   2.5371   2.5600   2.5801   2.7523   2.7963   2.8069   2.9575
     2.9647   2.9862   3.1133   3.6329   3.6674   3.7164

          k = 0.0000 0.3849 0.0000 ( 31728 PWs)   bands (ev):

   -73.6281 -69.8916 -55.0788 -55.0657 -55.0597 -55.0582 -44.9549 -44.9549
   -44.9529 -41.2826 -41.2826 -41.2490 -31.3047 -31.2971 -31.2653 -31.1688
   -31.1516 -31.1483 -31.1357 -31.1202 -31.1191 -31.1177 -31.0955 -31.0615
   -15.0877 -14.7686 -14.6594 -14.5725 -14.4701 -14.4547 -13.4985 -12.7613
   -12.7120 -12.3645 -12.3423 -12.3272 -12.1586 -12.1471  -5.2997  -5.0857
    -5.0769  -4.7932  -4.7688  -4.7502  -4.6482  -4.5779  -4.2784  -4.2701
    -4.1063  -3.9958  -3.8771  -3.8257  -3.7034  -3.6620  -3.5530  -3.4276
    -3.3987  -3.3401  -2.9334  -2.8339  -2.7740  -2.7341  -2.7162  -2.5224
    -2.4217  -2.3340  -2.2504  -2.1568  -2.1135  -2.0936  -2.0206  -1.9814
    -1.8951  -1.7036  -1.6198  -1.5830  -1.5378  -1.5149  -1.4771  -1.4294
    -1.3765  -0.9452  -0.8835  -0.5385  -0.0565  -0.0268   0.0597   0.1850
     0.2266   2.3762   2.4305   2.4664   2.4781   2.5175   2.6859   2.7435
     2.9984   3.0131   3.3409   3.3875   3.3918   3.4896

          k = 0.0000 0.3849-0.1248 ( 31716 PWs)   bands (ev):

   -73.6281 -69.8916 -55.0788 -55.0657 -55.0597 -55.0582 -44.9549 -44.9549
   -44.9529 -41.2826 -41.2826 -41.2490 -31.3047 -31.2970 -31.2652 -31.1688
   -31.1516 -31.1483 -31.1357 -31.1202 -31.1191 -31.1177 -31.0955 -31.0615
   -15.0877 -14.7686 -14.6594 -14.5725 -14.4701 -14.4547 -13.4985 -12.7613
   -12.7120 -12.3645 -12.3423 -12.3272 -12.1586 -12.1471  -5.2997  -5.0857
    -5.0769  -4.7932  -4.7688  -4.7502  -4.6482  -4.5779  -4.2783  -4.2701
    -4.1063  -3.9958  -3.8771  -3.8257  -3.7034  -3.6620  -3.5530  -3.4276
    -3.3987  -3.3401  -2.9334  -2.8339  -2.7740  -2.7341  -2.7162  -2.5224
    -2.4217  -2.3340  -2.2504  -2.1568  -2.1135  -2.0936  -2.0206  -1.9814
    -1.8951  -1.7036  -1.6198  -1.5830  -1.5378  -1.5149  -1.4771  -1.4294
    -1.3765  -0.9452  -0.8835  -0.5385  -0.0565  -0.0268   0.0597   0.1850
     0.2266   2.3762   2.4305   2.4664   2.4781   2.5175   2.6859   2.7435
     2.9984   3.0131   3.3409   3.3874   3.3918   3.4895

          k = 0.0000-0.5774 0.0000 ( 31730 PWs)   bands (ev):

   -73.6281 -69.8916 -55.0729 -55.0716 -55.0597 -55.0582 -44.9549 -44.9549
   -44.9529 -41.2826 -41.2826 -41.2490 -31.2877 -31.2795 -31.1961 -31.1911
   -31.1680 -31.1654 -31.1537 -31.1508 -31.1202 -31.1177 -31.0823 -31.0749
   -15.0080 -14.8515 -14.6667 -14.5459 -14.4899 -14.4588 -13.1523 -13.1462
   -12.5491 -12.5438 -12.3480 -12.3321 -12.1578 -12.1450  -5.3045  -5.0548
    -5.0436  -4.6422  -4.5615  -4.5344  -4.4297  -4.3783  -4.2381  -4.2297
    -4.1116  -4.0352  -3.8948  -3.8417  -3.5730  -3.4819  -3.4550  -3.3543
    -3.3285  -3.2979  -3.0907  -3.0245  -2.9204  -2.8505  -2.8146  -2.7620
    -2.5679  -2.5472  -2.4318  -2.4113  -2.2752  -2.0488  -1.9512  -1.9311
    -1.8076  -1.8006  -1.7281  -1.6530  -1.5365  -1.4615  -1.4320  -1.2315
    -1.2180  -1.1895  -1.1700  -0.3025  -0.2921  -0.0286   0.0054   0.1603
     0.1726   2.2970   2.3244   2.3632   2.4086   2.5187   2.5522   2.9438
     2.9483   3.0241   3.0404   3.1708   3.1872   3.6810

          k = 0.0000-0.5774-0.1248 ( 31748 PWs)   bands (ev):

   -73.6281 -69.8916 -55.0729 -55.0716 -55.0597 -55.0582 -44.9549 -44.9549
   -44.9529 -41.2826 -41.2826 -41.2490 -31.2877 -31.2795 -31.1961 -31.1912
   -31.1680 -31.1654 -31.1537 -31.1508 -31.1202 -31.1178 -31.0823 -31.0749
   -15.0080 -14.8515 -14.6667 -14.5459 -14.4899 -14.4588 -13.1523 -13.1462
   -12.5491 -12.5438 -12.3480 -12.3321 -12.1578 -12.1450  -5.3045  -5.0548
    -5.0436  -4.6422  -4.5615  -4.5344  -4.4297  -4.3784  -4.2381  -4.2297
    -4.1116  -4.0352  -3.8948  -3.8417  -3.5730  -3.4819  -3.4550  -3.3543
    -3.3285  -3.2979  -3.0907  -3.0245  -2.9204  -2.8505  -2.8146  -2.7620
    -2.5679  -2.5472  -2.4318  -2.4113  -2.2752  -2.0488  -1.9512  -1.9311
    -1.8076  -1.8006  -1.7281  -1.6530  -1.5365  -1.4615  -1.4320  -1.2315
    -1.2180  -1.1895  -1.1700  -0.3025  -0.2921  -0.0286   0.0054   0.1603
     0.1726   2.2970   2.3244   2.3632   2.4086   2.5187   2.5522   2.9438
     2.9483   3.0241   3.0404   3.1708   3.1872   3.6396

          k = 0.1667 0.2887 0.0000 ( 31761 PWs)   bands (ev):

   -73.6281 -69.8916 -55.0803 -55.0630 -55.0618 -55.0573 -44.9549 -44.9549
   -44.9529 -41.2826 -41.2826 -41.2490 -31.3144 -31.2940 -31.2894 -31.1726
   -31.1577 -31.1288 -31.1260 -31.1162 -31.1144 -31.1113 -31.1007 -31.0588
   -15.1152 -14.7353 -14.6605 -14.5826 -14.4631 -14.4526 -13.5751 -12.7486
   -12.5555 -12.5473 -12.2671 -12.2606 -12.2269 -12.0982  -5.2831  -5.1214
    -5.0887  -4.8894  -4.8469  -4.7739  -4.7658  -4.6879  -4.4496  -4.1356
    -4.0000  -3.9852  -3.9318  -3.8438  -3.7696  -3.6758  -3.5869  -3.4648
    -3.4302  -3.3717  -2.9382  -2.7842  -2.6932  -2.5744  -2.5381  -2.5157
    -2.4602  -2.3635  -2.3338  -2.2094  -2.1456  -2.0364  -1.9455  -1.8288
    -1.6981  -1.6559  -1.6218  -1.5977  -1.5601  -1.4474  -1.4137  -1.4020
    -1.3029  -1.2881  -0.7175  -0.3195  -0.3092   0.0649   0.1301   0.2195
     0.2626   2.3911   2.3981   2.4540   2.4655   2.6200   2.7732   2.7785
     2.8020   3.1832   3.4130   3.4209   3.4421   3.5307

          k = 0.1667 0.2887-0.1248 ( 31722 PWs)   bands (ev):

   -73.6281 -69.8916 -55.0803 -55.0630 -55.0618 -55.0573 -44.9549 -44.9549
   -44.9529 -41.2826 -41.2826 -41.2490 -31.3145 -31.2940 -31.2894 -31.1726
   -31.1577 -31.1288 -31.1260 -31.1162 -31.1144 -31.1113 -31.1007 -31.0588
   -15.1152 -14.7353 -14.6605 -14.5826 -14.4631 -14.4526 -13.5751 -12.7486
   -12.5555 -12.5473 -12.2671 -12.2606 -12.2269 -12.0982  -5.2831  -5.1214
    -5.0887  -4.8894  -4.8469  -4.7739  -4.7658  -4.6879  -4.4496  -4.1356
    -4.0000  -3.9852  -3.9318  -3.8438  -3.7696  -3.6758  -3.5869  -3.4648
    -3.4302  -3.3717  -2.9382  -2.7842  -2.6932  -2.5744  -2.5380  -2.5157
    -2.4602  -2.3635  -2.3338  -2.2094  -2.1456  -2.0364  -1.9455  -1.8288
    -1.6981  -1.6559  -1.6218  -1.5977  -1.5601  -1.4474  -1.4137  -1.4020
    -1.3029  -1.2881  -0.7175  -0.3195  -0.3092   0.0649   0.1301   0.2195
     0.2626   2.3911   2.3981   2.4540   2.4655   2.6200   2.7732   2.7785
     2.8020   3.1832   3.4130   3.4209   3.4421   3.5301

          k = 0.1667 0.4811 0.0000 ( 31805 PWs)   bands (ev):

   -73.6281 -69.8916 -55.0747 -55.0681 -55.0631 -55.0565 -44.9549 -44.9549
   -44.9529 -41.2826 -41.2826 -41.2490 -31.2884 -31.2650 -31.2327 -31.1960
   -31.1629 -31.1584 -31.1418 -31.1294 -31.1287 -31.1128 -31.0963 -31.0755
   -15.0144 -14.8353 -14.6782 -14.5487 -14.4849 -14.4594 -13.2813 -12.9099
   -12.6161 -12.6070 -12.4324 -12.2892 -12.1747 -12.0625  -5.2579  -5.0865
    -5.0459  -4.6740  -4.5446  -4.4892  -4.4794  -4.4587  -4.3616  -4.1784
    -3.9460  -3.9202  -3.8013  -3.7610  -3.7209  -3.5615  -3.4920  -3.4017
    -3.3515  -3.3205  -3.2172  -2.9569  -2.9089  -2.8267  -2.7550  -2.7328
    -2.6753  -2.4765  -2.4185  -2.3247  -2.2494  -2.0812  -1.9695  -1.9322
    -1.8959  -1.8523  -1.7332  -1.7134  -1.5559  -1.5328  -1.4161  -1.3053
    -1.2136  -1.1470  -0.8505  -0.3639  -0.2307  -0.1315   0.1380   0.2134
     0.2636   2.1952   2.2154   2.2321   2.2582   2.6183   2.6401   2.6857
     2.8331   3.0150   3.0766   3.2273   3.3671   3.6434

          k = 0.1667 0.4811-0.1248 ( 31782 PWs)   bands (ev):

   -73.6281 -69.8916 -55.0747 -55.0681 -55.0631 -55.0565 -44.9549 -44.9549
   -44.9529 -41.2826 -41.2826 -41.2490 -31.2884 -31.2650 -31.2326 -31.1960
   -31.1628 -31.1584 -31.1418 -31.1294 -31.1287 -31.1128 -31.0963 -31.0754
   -15.0144 -14.8353 -14.6782 -14.5487 -14.4849 -14.4594 -13.2813 -12.9099
   -12.6161 -12.6070 -12.4324 -12.2892 -12.1747 -12.0625  -5.2579  -5.0865
    -5.0459  -4.6740  -4.5446  -4.4892  -4.4794  -4.4587  -4.3616  -4.1784
    -3.9460  -3.9202  -3.8013  -3.7610  -3.7209  -3.5615  -3.4920  -3.4017
    -3.3515  -3.3205  -3.2172  -2.9569  -2.9089  -2.8267  -2.7550  -2.7328
    -2.6753  -2.4765  -2.4185  -2.3247  -2.2494  -2.0812  -1.9695  -1.9322
    -1.8959  -1.8523  -1.7332  -1.7134  -1.5559  -1.5328  -1.4161  -1.3053
    -1.2136  -1.1470  -0.8505  -0.3639  -0.2307  -0.1314   0.1380   0.2134
     0.2636   2.1952   2.2154   2.2321   2.2582   2.6183   2.6401   2.6857
     2.8331   3.0150   3.0766   3.2273   3.3671   3.6434

          k = 0.3333 0.5774 0.0000 ( 31791 PWs)   bands (ev):

   -73.6281 -69.8916 -55.0699 -55.0691 -55.0677 -55.0556 -44.9549 -44.9549
   -44.9529 -41.2826 -41.2826 -41.2490 -31.2679 -31.2292 -31.2189 -31.2152
   -31.2121 -31.1466 -31.1432 -31.1420 -31.1109 -31.1071 -31.0981 -31.0975
   -14.9255 -14.9153 -14.6941 -14.5328 -14.4941 -14.4631 -12.9678 -12.9652
   -12.9569 -12.4600 -12.4582 -12.4513 -12.1173 -12.0261  -5.1968  -5.1024
    -5.0412  -4.6433  -4.6243  -4.3632  -4.2889  -4.2391  -4.1813  -4.1514
    -3.9296  -3.8553  -3.7701  -3.7035  -3.6466  -3.6056  -3.6036  -3.5075
    -3.4327  -3.2190  -3.1465  -3.1224  -3.1201  -2.8097  -2.7811  -2.6822
    -2.6320  -2.6309  -2.6013  -2.4551  -2.3496  -2.3075  -2.0881  -1.9417
    -1.8287  -1.7824  -1.7787  -1.5587  -1.5581  -1.5162  -1.5157  -1.5067
    -0.9335  -0.9327  -0.9276  -0.2839  -0.2786  -0.2735   0.1345   0.2210
     0.4416   2.0285   2.0820   2.0830   2.0929   2.6797   2.6854   2.6933
     2.7752   2.7905   2.7982   3.1437   3.5616   3.6590

          k = 0.3333 0.5774-0.1248 ( 31812 PWs)   bands (ev):

   -73.6281 -69.8916 -55.0699 -55.0692 -55.0677 -55.0556 -44.9549 -44.9549
   -44.9529 -41.2826 -41.2826 -41.2490 -31.2679 -31.2292 -31.2189 -31.2151
   -31.2121 -31.1466 -31.1432 -31.1420 -31.1109 -31.1071 -31.0981 -31.0976
   -14.9255 -14.9153 -14.6941 -14.5328 -14.4941 -14.4631 -12.9678 -12.9652
   -12.9569 -12.4600 -12.4582 -12.4513 -12.1173 -12.0261  -5.1968  -5.1024
    -5.0412  -4.6433  -4.6243  -4.3632  -4.2889  -4.2391  -4.1813  -4.1514
    -3.9296  -3.8553  -3.7701  -3.7035  -3.6466  -3.6056  -3.6036  -3.5075
    -3.4327  -3.2190  -3.1465  -3.1224  -3.1201  -2.8097  -2.7811  -2.6822
    -2.6320  -2.6309  -2.6013  -2.4551  -2.3496  -2.3075  -2.0881  -1.9417
    -1.8287  -1.7824  -1.7787  -1.5587  -1.5581  -1.5162  -1.5157  -1.5067
    -0.9335  -0.9327  -0.9276  -0.2839  -0.2786  -0.2735   0.1345   0.2210
     0.4416   2.0285   2.0820   2.0830   2.0929   2.6797   2.6854   2.6933
     2.7751   2.7905   2.7982   3.1437   3.5616   3.6591

          k = 0.1667-0.4811 0.0000 ( 31805 PWs)   bands (ev):

   -73.6281 -69.8916 -55.0747 -55.0681 -55.0631 -55.0565 -44.9549 -44.9549
   -44.9529 -41.2826 -41.2826 -41.2490 -31.2883 -31.2651 -31.2325 -31.1962
   -31.1626 -31.1584 -31.1418 -31.1294 -31.1288 -31.1128 -31.0962 -31.0755
   -15.0144 -14.8353 -14.6782 -14.5487 -14.4849 -14.4594 -13.2813 -12.9099
   -12.6154 -12.6077 -12.4323 -12.2892 -12.1747 -12.0625  -5.2577  -5.0883
    -5.0445  -4.6718  -4.5450  -4.4897  -4.4804  -4.4607  -4.3587  -4.1834
    -3.9484  -3.8881  -3.8511  -3.7631  -3.6487  -3.6225  -3.4509  -3.4203
    -3.3629  -3.3262  -3.2178  -2.9536  -2.8914  -2.8299  -2.7529  -2.7327
    -2.6874  -2.4513  -2.4294  -2.3296  -2.2630  -2.0728  -1.9842  -1.9289
    -1.8853  -1.8497  -1.7436  -1.7112  -1.5565  -1.5257  -1.4160  -1.3053
    -1.2118  -1.1517  -0.8499  -0.3638  -0.2298  -0.1338   0.1463   0.2064
     0.2636   2.1980   2.2096   2.2355   2.2576   2.6198   2.6387   2.6850
     2.8337   3.0156   3.0771   3.2268   3.3660   3.6463

          k = 0.1667-0.4811 0.1248 ( 31782 PWs)   bands (ev):

   -73.6281 -69.8916 -55.0747 -55.0681 -55.0631 -55.0565 -44.9549 -44.9549
   -44.9529 -41.2826 -41.2826 -41.2490 -31.2883 -31.2651 -31.2325 -31.1962
   -31.1626 -31.1583 -31.1418 -31.1294 -31.1288 -31.1128 -31.0962 -31.0755
   -15.0144 -14.8353 -14.6782 -14.5487 -14.4849 -14.4594 -13.2813 -12.9099
   -12.6154 -12.6077 -12.4323 -12.2892 -12.1747 -12.0625  -5.2577  -5.0883
    -5.0445  -4.6718  -4.5450  -4.4897  -4.4804  -4.4607  -4.3587  -4.1834
    -3.9484  -3.8881  -3.8511  -3.7631  -3.6487  -3.6225  -3.4509  -3.4203
    -3.3629  -3.3262  -3.2178  -2.9536  -2.8914  -2.8299  -2.7529  -2.7327
    -2.6874  -2.4513  -2.4294  -2.3296  -2.2630  -2.0728  -1.9842  -1.9289
    -1.8853  -1.8497  -1.7436  -1.7112  -1.5565  -1.5256  -1.4159  -1.3053
    -1.2118  -1.1517  -0.8499  -0.3638  -0.2298  -0.1338   0.1463   0.2064
     0.2636   2.1980   2.2096   2.2355   2.2576   2.6198   2.6387   2.6850
     2.8337   3.0156   3.0771   3.2269   3.3660   3.6459

     the Fermi energy is    -0.1452 ev

!    total energy              =   -2319.09339964 Ry
     estimated scf accuracy    <       0.00000010 Ry
     smearing contrib. (-TS)   =      -0.00306019 Ry
     internal energy E=F+TS    =   -2319.09033945 Ry

     The total energy is F=E-TS. E is the sum of the following terms:
     one-electron contribution =   -7696.54587964 Ry
     hartree contribution      =    3869.88918582 Ry
     xc contribution           =    -555.24711256 Ry
     ewald contribution        =    2896.78480819 Ry
     Dispersion Correction     =      -0.33276073 Ry
     Hubbard energy            =       0.32977193 Ry
     one-center paw contrib.   =    -833.96835246 Ry

     total magnetization       =     0.01 Bohr mag/cell
     absolute magnetization    =     8.73 Bohr mag/cell

     convergence has been achieved in  53 iterations

     negative rho (up, down):  7.675E-03 7.794E-03

     Forces acting on atoms (cartesian axes, Ry/au):

     atom    1 type  1   force =     0.00000000   -0.00000000    0.00055307
     atom    2 type  1   force =     0.00000000    0.00000000    0.00095533
     atom    3 type  2   force =    -0.00169449   -0.00242498   -0.00507585
     atom    4 type  2   force =     0.00294734   -0.00025499   -0.00507585
     atom    5 type  2   force =    -0.00125285    0.00267996   -0.00507585
     atom    6 type  2   force =     0.00168212    0.00174649    0.00461267
     atom    7 type  2   force =    -0.00235356    0.00058351    0.00461267
     atom    8 type  2   force =     0.00067144   -0.00233000    0.00461267
     atom    9 type  3   force =     0.00000000    0.00000000   -0.00003487
     atom   10 type  4   force =    -0.00027430    0.00007207    0.00001403
     atom   11 type  4   force =    -0.00028623    0.00086609   -0.00057549
     atom   12 type  3   force =    -0.00010253   -0.00031312    0.00031050
     atom   13 type  4   force =     0.00019957    0.00020151    0.00001403
     atom   14 type  4   force =     0.00089317   -0.00018516   -0.00057549
     atom   15 type  3   force =    -0.00021990    0.00024536    0.00031050
     atom   16 type  4   force =     0.00000000    0.00000000    0.00046514
     atom   17 type  4   force =     0.00000000   -0.00000000    0.00020373
     atom   18 type  3   force =     0.00032243    0.00006776    0.00031050
     atom   19 type  4   force =     0.00007473   -0.00027359    0.00001403
     atom   20 type  4   force =    -0.00060693   -0.00068093   -0.00057549

     Total force =     0.013815     Total SCF correction =     0.000092


     Computing stress (Cartesian axis) and pressure


     negative rho (up, down):  7.675E-03 7.794E-03
          total   stress  (Ry/bohr**3)                   (kbar)     P=        1.33
   0.00001051  -0.00000000   0.00000000            1.55       -0.00        0.00
  -0.00000000   0.00001051   0.00000000           -0.00        1.55        0.00
   0.00000000   0.00000000   0.00000615            0.00        0.00        0.90


     Writing output data file ./tmp/crbr3.nbse2.bilayer.save/
 
     init_run     :      6.76s CPU      8.13s WALL (       1 calls)
     electrons    :    644.11s CPU    649.21s WALL (       1 calls)
     forces       :      3.31s CPU      3.38s WALL (       1 calls)
     force_london :      0.02s CPU      0.02s WALL (       1 calls)
     stress       :      8.22s CPU      8.31s WALL (       1 calls)
     stres_london :      0.02s CPU      0.02s WALL (       1 calls)

     Called by init_run:
     wfcinit      :      4.78s CPU      5.56s WALL (       1 calls)
     potinit      :      0.63s CPU      0.87s WALL (       1 calls)
     hinit0       :      1.00s CPU      1.29s WALL (       1 calls)

     Called by electrons:
     c_bands      :    547.33s CPU    551.09s WALL (      53 calls)
     sum_band     :     70.25s CPU     71.11s WALL (      53 calls)
     v_of_rho     :      2.50s CPU      2.54s WALL (      54 calls)
     newd         :      4.18s CPU      4.36s WALL (      54 calls)
     PAW_pot      :      8.88s CPU      8.88s WALL (      54 calls)
     mix_rho      :     11.03s CPU     11.15s WALL (      53 calls)
     energy_londo :      0.02s CPU      0.02s WALL (       1 calls)

     Called by c_bands:
     init_us_2    :      2.34s CPU      2.37s WALL (    3584 calls)
     cegterg      :    537.81s CPU    541.42s WALL (    1696 calls)

     Called by *egterg:
     cdiaghg      :    191.45s CPU    192.38s WALL (    8207 calls)
     h_psi        :    271.83s CPU    274.92s WALL (    8239 calls)
     s_psi        :      9.13s CPU      9.21s WALL (    8335 calls)
     g_psi        :      0.24s CPU      0.24s WALL (    6511 calls)

     Called by h_psi:
     h_psi:calbec :     15.14s CPU     15.31s WALL (    8239 calls)
     vloc_psi     :    243.39s CPU    246.19s WALL (    8239 calls)
     add_vuspsi   :      9.94s CPU     10.03s WALL (    8239 calls)
     vhpsi        :      2.86s CPU      2.90s WALL (    8239 calls)

     General routines
     calbec       :     28.97s CPU     29.31s WALL (   51198 calls)
     fft          :      1.61s CPU      1.75s WALL (    1388 calls)
     ffts         :      7.76s CPU      7.80s WALL (   17394 calls)
     fftw         :    287.10s CPU    290.32s WALL (  968626 calls)
     interpolate  :      0.17s CPU      0.17s WALL (     108 calls)
     davcio       :      0.00s CPU      0.37s WALL (      32 calls)
 
     Parallel routines

     Hubbard U routines
     new_ns       :      0.70s CPU      0.74s WALL (      53 calls)
     vhpsi        :      2.86s CPU      2.90s WALL (    8239 calls)
     force_hub    :      1.53s CPU      1.56s WALL (       1 calls)
     stres_hub    :      4.09s CPU      4.15s WALL (       1 calls)
 
     PWSCF        :  11m11.00s CPU  11m23.24s WALL

 
   This run was terminated on:  12:30:24  11Jul2023            

=------------------------------------------------------------------------------=
   JOB DONE.
=------------------------------------------------------------------------------=
