 
             +---------------------------------------------------+
             |                                                   |
             |                   WANNIER90                       |
             |                                                   |
             +---------------------------------------------------+
             |                                                   |
             |        Welcome to the Maximally-Localized         |
             |        Generalized Wannier Functions code         |
             |            http://www.wannier.org                 |
             |                                                   |
             |                                                   |
             |  Wannier90 Developer Group:                       |
             |    Giovanni Pizzi    (EPFL)                       |
             |    Valerio Vitale    (Cambridge)                  |
             |    David Vanderbilt  (Rutgers University)         |
             |    Nicola Marzari    (EPFL)                       |
             |    Ivo Souza         (Universidad del Pais Vasco) |
             |    Arash A. Mostofi  (Imperial College London)    |
             |    Jonathan R. Yates (University of Oxford)       |
             |                                                   |
             |  For the full list of Wannier90 3.x authors,      |
             |  please check the code documentation and the      |
             |  README on the GitHub page of the code            |
             |                                                   |
             |                                                   |
             |  Please cite                                      |
             |                                                   |
             |  [ref] "Wannier90 as a community code:            |
             |        new features and applications",            |
             |        G. Pizzi et al., J. Phys. Cond. Matt. 32,  |
             |        165902 (2020).                             |
             |        http://doi.org/10.1088/1361-648X/ab51ff    |
             |                                                   |
             |  in any publications arising from the use of      |
             |  this code. For the method please cite            |
             |                                                   |
             |  [ref] "Maximally Localized Generalised Wannier   |
             |         Functions for Composite Energy Bands"     |
             |         N. Marzari and D. Vanderbilt              |
             |         Phys. Rev. B 56 12847 (1997)              |
             |                                                   |
             |  [ref] "Maximally Localized Wannier Functions     |
             |         for Entangled Energy Bands"               |
             |         I. Souza, N. Marzari and D. Vanderbilt    |
             |         Phys. Rev. B 65 035109 (2001)             |
             |                                                   |
             |                                                   |
             | Copyright (c) 1996-2020                           |
             |        The Wannier90 Developer Group and          |
             |        individual contributors                    |
             |                                                   |
             |      Release: 3.1.0        5th March    2020      |
             |                                                   |
             | This program is free software; you can            |
             | redistribute it and/or modify it under the terms  |
             | of the GNU General Public License as published by |
             | the Free Software Foundation; either version 2 of |
             | the License, or (at your option) any later version|
             |                                                   |
             | This program is distributed in the hope that it   |
             | will be useful, but WITHOUT ANY WARRANTY; without |
             | even the implied warranty of MERCHANTABILITY or   |
             | FITNESS FOR A PARTICULAR PURPOSE. See the GNU     |
             | General Public License for more details.          |
             |                                                   |
             | You should have received a copy of the GNU General|
             | Public License along with this program; if not,   |
             | write to the Free Software Foundation, Inc.,      |
             | 675 Mass Ave, Cambridge, MA 02139, USA.           |
             |                                                   |
             +---------------------------------------------------+
             |    Execution started on 11Jul2023 at 12:46:46     |
             +---------------------------------------------------+
 
 ******************************************************************************
 * -> Using CODATA 2006 constant values                                       *
 *    (http://physics.nist.gov/cuu/Constants/index.html)                      *
 * -> Using Bohr value from CODATA                                            *
 ******************************************************************************
 

 Running in parallel on 160 CPUs

 
                                    ------
                                    SYSTEM
                                    ------
 
                              Lattice Vectors (Ang)
                    a_1     6.821628   0.000000   0.000000
                    a_2    -3.410814   5.907703   0.000000
                    a_3     0.000000   0.000000  27.331140
 
                   Unit Cell Volume:    1101.44921  (Ang^3)
 
                        Reciprocal-Space Vectors (Ang^-1)
                    b_1     0.921068   0.531779   0.000000
                    b_2     0.000000   1.063558   0.000000
                    b_3     0.000000   0.000000   0.229891
  
 *----------------------------------------------------------------------------*
 |   Site       Fractional Coordinate          Cartesian Coordinate (Ang)     |
 +----------------------------------------------------------------------------+
 | Cr   1   0.33333   0.66667   0.29373   |   -0.00000   3.93847   8.02789    |
 | Cr   2   0.66667   0.33333   0.29340   |    3.41081   1.96923   8.01898    |
 | Br   1   0.36461   0.36599   0.24085   |    1.23890   2.16217   6.58273    |
 | Br   2   0.63401  -0.00138   0.24085   |    4.32968  -0.00817   6.58273    |
 | Br   3   0.00138   0.63539   0.24085   |   -2.15777   3.75370   6.58273    |
 | Br   4   0.63871   0.63828   0.34551   |    2.18001   3.77079   9.44319    |
 | Br   5   0.36172   0.00043   0.34551   |    2.46602   0.00254   9.44319    |
 | Br   6  -0.00043   0.36129   0.34551   |   -1.23522   2.13437   9.44319    |
 | Nb   1   0.00000   0.00000   0.05746   |    0.00000   0.00000   1.57036    |
 | Nb   2   0.49853   0.49959   0.05758   |    1.69679   2.95143   1.57382    |
 | Nb   3   0.00106   0.50147   0.05758   |   -1.70319   2.96252   1.57382    |
 | Nb   4   0.50041  -0.00106   0.05758   |    3.41722  -0.00625   1.57382    |
 | Se   1   0.33374   0.16625  -0.00483   |    1.70964   0.98215  -0.13200    |
 | Se   2   0.33343   0.16470   0.11931   |    1.71277   0.97299   3.26101    |
 | Se   3   0.83250   0.66626  -0.00483   |    3.40656   3.93604  -0.13200    |
 | Se   4   0.83127   0.66657   0.11931   |    3.39706   3.93791   3.26101    |
 | Se   5   0.33333   0.66667  -0.00506   |   -0.00000   3.93847  -0.13817    |
 | Se   6   0.33333   0.66667   0.12001   |   -0.00000   3.93847   3.27990    |
 | Se   7   0.83375   0.16750  -0.00483   |    5.11625   0.98952  -0.13200    |
 | Se   8   0.83530   0.16873   0.11931   |    5.12261   0.99681   3.26101    |
 *----------------------------------------------------------------------------*
                                -----------
                                PROJECTIONS
                                -----------
  
 +----------------------------------------------------------------------------+
 |     Frac. Coord.   l mr  r        z-axis               x-axis          Z/a |
 +----------------------------------------------------------------------------+
 |  0.33  0.67  0.29  2  1  1  0.000  0.000  1.000  1.000  0.000  0.000   1.0 |
 |  0.33  0.67  0.29  2  2  1  0.000  0.000  1.000  1.000  0.000  0.000   1.0 |
 |  0.33  0.67  0.29  2  3  1  0.000  0.000  1.000  1.000  0.000  0.000   1.0 |
 |  0.33  0.67  0.29  2  4  1  0.000  0.000  1.000  1.000  0.000  0.000   1.0 |
 |  0.33  0.67  0.29  2  5  1  0.000  0.000  1.000  1.000  0.000  0.000   1.0 |
 |  0.67  0.33  0.29  2  1  1  0.000  0.000  1.000  1.000  0.000  0.000   1.0 |
 |  0.67  0.33  0.29  2  2  1  0.000  0.000  1.000  1.000  0.000  0.000   1.0 |
 |  0.67  0.33  0.29  2  3  1  0.000  0.000  1.000  1.000  0.000  0.000   1.0 |
 |  0.67  0.33  0.29  2  4  1  0.000  0.000  1.000  1.000  0.000  0.000   1.0 |
 |  0.67  0.33  0.29  2  5  1  0.000  0.000  1.000  1.000  0.000  0.000   1.0 |
 |  0.36  0.37  0.24  1  1  1  0.000  0.000  1.000  1.000  0.000  0.000   1.0 |
 |  0.36  0.37  0.24  1  2  1  0.000  0.000  1.000  1.000  0.000  0.000   1.0 |
 |  0.36  0.37  0.24  1  3  1  0.000  0.000  1.000  1.000  0.000  0.000   1.0 |
 |  0.63 -0.00  0.24  1  1  1  0.000  0.000  1.000  1.000  0.000  0.000   1.0 |
 |  0.63 -0.00  0.24  1  2  1  0.000  0.000  1.000  1.000  0.000  0.000   1.0 |
 |  0.63 -0.00  0.24  1  3  1  0.000  0.000  1.000  1.000  0.000  0.000   1.0 |
 |  0.00  0.64  0.24  1  1  1  0.000  0.000  1.000  1.000  0.000  0.000   1.0 |
 |  0.00  0.64  0.24  1  2  1  0.000  0.000  1.000  1.000  0.000  0.000   1.0 |
 |  0.00  0.64  0.24  1  3  1  0.000  0.000  1.000  1.000  0.000  0.000   1.0 |
 |  0.64  0.64  0.35  1  1  1  0.000  0.000  1.000  1.000  0.000  0.000   1.0 |
 |  0.64  0.64  0.35  1  2  1  0.000  0.000  1.000  1.000  0.000  0.000   1.0 |
 |  0.64  0.64  0.35  1  3  1  0.000  0.000  1.000  1.000  0.000  0.000   1.0 |
 |  0.36  0.00  0.35  1  1  1  0.000  0.000  1.000  1.000  0.000  0.000   1.0 |
 |  0.36  0.00  0.35  1  2  1  0.000  0.000  1.000  1.000  0.000  0.000   1.0 |
 |  0.36  0.00  0.35  1  3  1  0.000  0.000  1.000  1.000  0.000  0.000   1.0 |
 | -0.00  0.36  0.35  1  1  1  0.000  0.000  1.000  1.000  0.000  0.000   1.0 |
 | -0.00  0.36  0.35  1  2  1  0.000  0.000  1.000  1.000  0.000  0.000   1.0 |
 | -0.00  0.36  0.35  1  3  1  0.000  0.000  1.000  1.000  0.000  0.000   1.0 |
 |  0.33  0.17 -0.00  1  1  1  0.000  0.000  1.000  1.000  0.000  0.000   1.0 |
 |  0.33  0.17 -0.00  1  2  1  0.000  0.000  1.000  1.000  0.000  0.000   1.0 |
 |  0.33  0.17 -0.00  1  3  1  0.000  0.000  1.000  1.000  0.000  0.000   1.0 |
 |  0.33  0.16  0.12  1  1  1  0.000  0.000  1.000  1.000  0.000  0.000   1.0 |
 |  0.33  0.16  0.12  1  2  1  0.000  0.000  1.000  1.000  0.000  0.000   1.0 |
 |  0.33  0.16  0.12  1  3  1  0.000  0.000  1.000  1.000  0.000  0.000   1.0 |
 |  0.83  0.67 -0.00  1  1  1  0.000  0.000  1.000  1.000  0.000  0.000   1.0 |
 |  0.83  0.67 -0.00  1  2  1  0.000  0.000  1.000  1.000  0.000  0.000   1.0 |
 |  0.83  0.67 -0.00  1  3  1  0.000  0.000  1.000  1.000  0.000  0.000   1.0 |
 |  0.83  0.67  0.12  1  1  1  0.000  0.000  1.000  1.000  0.000  0.000   1.0 |
 |  0.83  0.67  0.12  1  2  1  0.000  0.000  1.000  1.000  0.000  0.000   1.0 |
 |  0.83  0.67  0.12  1  3  1  0.000  0.000  1.000  1.000  0.000  0.000   1.0 |
 |  0.33  0.67 -0.01  1  1  1  0.000  0.000  1.000  1.000  0.000  0.000   1.0 |
 |  0.33  0.67 -0.01  1  2  1  0.000  0.000  1.000  1.000  0.000  0.000   1.0 |
 |  0.33  0.67 -0.01  1  3  1  0.000  0.000  1.000  1.000  0.000  0.000   1.0 |
 |  0.33  0.67  0.12  1  1  1  0.000  0.000  1.000  1.000  0.000  0.000   1.0 |
 |  0.33  0.67  0.12  1  2  1  0.000  0.000  1.000  1.000  0.000  0.000   1.0 |
 |  0.33  0.67  0.12  1  3  1  0.000  0.000  1.000  1.000  0.000  0.000   1.0 |
 |  0.83  0.17 -0.00  1  1  1  0.000  0.000  1.000  1.000  0.000  0.000   1.0 |
 |  0.83  0.17 -0.00  1  2  1  0.000  0.000  1.000  1.000  0.000  0.000   1.0 |
 |  0.83  0.17 -0.00  1  3  1  0.000  0.000  1.000  1.000  0.000  0.000   1.0 |
 |  0.84  0.17  0.12  1  1  1  0.000  0.000  1.000  1.000  0.000  0.000   1.0 |
 |  0.84  0.17  0.12  1  2  1  0.000  0.000  1.000  1.000  0.000  0.000   1.0 |
 |  0.84  0.17  0.12  1  3  1  0.000  0.000  1.000  1.000  0.000  0.000   1.0 |
 |  0.00  0.00  0.06  2  1  1  0.000  0.000  1.000  1.000  0.000  0.000   1.0 |
 |  0.00  0.00  0.06  2  4  1  0.000  0.000  1.000  1.000  0.000  0.000   1.0 |
 |  0.00  0.00  0.06  2  5  1  0.000  0.000  1.000  1.000  0.000  0.000   1.0 |
 |  0.50  0.50  0.06  2  1  1  0.000  0.000  1.000  1.000  0.000  0.000   1.0 |
 |  0.50  0.50  0.06  2  4  1  0.000  0.000  1.000  1.000  0.000  0.000   1.0 |
 |  0.50  0.50  0.06  2  5  1  0.000  0.000  1.000  1.000  0.000  0.000   1.0 |
 |  0.00  0.50  0.06  2  1  1  0.000  0.000  1.000  1.000  0.000  0.000   1.0 |
 |  0.00  0.50  0.06  2  4  1  0.000  0.000  1.000  1.000  0.000  0.000   1.0 |
 |  0.00  0.50  0.06  2  5  1  0.000  0.000  1.000  1.000  0.000  0.000   1.0 |
 |  0.50 -0.00  0.06  2  1  1  0.000  0.000  1.000  1.000  0.000  0.000   1.0 |
 |  0.50 -0.00  0.06  2  4  1  0.000  0.000  1.000  1.000  0.000  0.000   1.0 |
 |  0.50 -0.00  0.06  2  5  1  0.000  0.000  1.000  1.000  0.000  0.000   1.0 |
 +----------------------------------------------------------------------------+
  
                                ------------
                                K-POINT GRID
                                ------------
  
             Grid size =  6 x  6 x  1      Total points =   36
  
 *----------------------------------------------------------------------------*
 | k-point      Fractional Coordinate        Cartesian Coordinate (Ang^-1)    |
 +----------------------------------------------------------------------------+
 |     1    0.00000   0.00000   0.00000   |    0.00000   0.00000   0.00000    |
 |     2    0.00000   0.16667   0.00000   |    0.00000   0.17726   0.00000    |
 |     3    0.00000   0.33333   0.00000   |    0.00000   0.35452   0.00000    |
 |     4    0.00000   0.50000   0.00000   |    0.00000   0.53178   0.00000    |
 |     5    0.00000   0.66667   0.00000   |    0.00000   0.70904   0.00000    |
 |     6    0.00000   0.83333   0.00000   |    0.00000   0.88630   0.00000    |
 |     7    0.16667   0.00000   0.00000   |    0.15351   0.08863   0.00000    |
 |     8    0.16667   0.16667   0.00000   |    0.15351   0.26589   0.00000    |
 |     9    0.16667   0.33333   0.00000   |    0.15351   0.44315   0.00000    |
 |    10    0.16667   0.50000   0.00000   |    0.15351   0.62041   0.00000    |
 |    11    0.16667   0.66667   0.00000   |    0.15351   0.79767   0.00000    |
 |    12    0.16667   0.83333   0.00000   |    0.15351   0.97493   0.00000    |
 |    13    0.33333   0.00000   0.00000   |    0.30702   0.17726   0.00000    |
 |    14    0.33333   0.16667   0.00000   |    0.30702   0.35452   0.00000    |
 |    15    0.33333   0.33333   0.00000   |    0.30702   0.53178   0.00000    |
 |    16    0.33333   0.50000   0.00000   |    0.30702   0.70904   0.00000    |
 |    17    0.33333   0.66667   0.00000   |    0.30702   0.88630   0.00000    |
 |    18    0.33333   0.83333   0.00000   |    0.30702   1.06356   0.00000    |
 |    19    0.50000   0.00000   0.00000   |    0.46053   0.26589   0.00000    |
 |    20    0.50000   0.16667   0.00000   |    0.46053   0.44315   0.00000    |
 |    21    0.50000   0.33333   0.00000   |    0.46053   0.62041   0.00000    |
 |    22    0.50000   0.50000   0.00000   |    0.46053   0.79767   0.00000    |
 |    23    0.50000   0.66667   0.00000   |    0.46053   0.97493   0.00000    |
 |    24    0.50000   0.83333   0.00000   |    0.46053   1.15219   0.00000    |
 |    25    0.66667   0.00000   0.00000   |    0.61405   0.35452   0.00000    |
 |    26    0.66667   0.16667   0.00000   |    0.61405   0.53178   0.00000    |
 |    27    0.66667   0.33333   0.00000   |    0.61405   0.70904   0.00000    |
 |    28    0.66667   0.50000   0.00000   |    0.61405   0.88630   0.00000    |
 |    29    0.66667   0.66667   0.00000   |    0.61405   1.06356   0.00000    |
 |    30    0.66667   0.83333   0.00000   |    0.61405   1.24082   0.00000    |
 |    31    0.83333   0.00000   0.00000   |    0.76756   0.44315   0.00000    |
 |    32    0.83333   0.16667   0.00000   |    0.76756   0.62041   0.00000    |
 |    33    0.83333   0.33333   0.00000   |    0.76756   0.79767   0.00000    |
 |    34    0.83333   0.50000   0.00000   |    0.76756   0.97493   0.00000    |
 |    35    0.83333   0.66667   0.00000   |    0.76756   1.15219   0.00000    |
 |    36    0.83333   0.83333   0.00000   |    0.76756   1.32945   0.00000    |
 *----------------------------------------------------------------------------*
  
  
 *---------------------------------- MAIN ------------------------------------*
 |  Number of Wannier Functions               :                64             |
 |  Number of Objective Wannier Functions     :                64             |
 |  Number of input Bloch states              :               110             |
 |  Output verbosity (1=low, 5=high)          :                 3             |
 |  Timing Level (1=low, 5=high)              :                 1             |
 |  Optimisation (0=memory, 3=speed)          :                 3             |
 |  Length Unit                               :               Ang             |
 |  Post-processing setup (write *.nnkp)      :                 F             |
 |  Using Gamma-only branch of algorithms     :                 F             |
 |  CP code post-processing                   :                 F             |
 |  Wavefunction (UNK) file-type              :       unformatted             |
 |  Wavefunction spin channel                 :                up             |
 *----------------------------------------------------------------------------*
 *------------------------------- WANNIERISE ---------------------------------*
 |  Total number of iterations                :               500             |
 |  Number of CG steps before reset           :                 5             |
 |  Trial step length for line search         :             2.000             |
 |  Convergence tolerence                     :         0.100E-09             |
 |  Convergence window                        :                -1             |
 |  Iterations between writing output         :                50             |
 |  Iterations between backing up to disk     :               100             |
 |  Write r^2_nm to file                      :                 F             |
 |  Write xyz WF centres to file              :                 T             |
 |  Write on-site energies <0n|H|0n> to file  :                 F             |
 |  Use guiding centre to control phases      :                 T             |
 |  Use phases for initial projections        :                 F             |
 |  Iterations before starting guiding centres:                 0             |
 |  Iterations between using guiding centres  :                 1             |
 |  Perform selective localization            :                 F             |
 |  Use constrains in selective localization  :                 F             |
 |  Value of the Lagrange multiplier          :         0.100E+01             |
 *----------------------------------------------------------------------------*
 *------------------------------- DISENTANGLE --------------------------------*
 |  Using band disentanglement                :                 T             |
 |  Total number of iterations                :              4000             |
 |  Mixing ratio                              :             0.500             |
 |  Convergence tolerence                     :         1.000E-10             |
 |  Convergence window                        :                 3             |
 *----------------------------------------------------------------------------*
 *-------------------------------- PLOTTING ----------------------------------*
 |  Plotting Wannier functions                :                 F             |
 |   Size of supercell for plotting           :     2x    2x    2             |
 |   Plotting mode (molecule or crystal)      :           crystal             |
 |   Plotting format                          :          xcrysden             |
 |   Plot radius                              :             3.500             |
 |   Plot scale                               :             1.000             |
 *----------------------------------------------------------------------------*
 |  Plotting Fermi surface                    :                 F             |
 |   Number of plotting points (along b_1)    :                50             |
 |   Plotting format                          :          xcrysden             |
 *----------------------------------------------------------------------------*
 |  Plotting interpolated bandstructure       :                 T             |
 |   Number of K-path sections                :                 3             |
 |   Divisions along first K-path section     :               100             |
 |   Output format                            :           gnuplot             |
 |   Output mode                              :               s-k             |
 *----------------------------------------------------------------------------*
 |   K-space path sections:                                                   |
 |    From: Γ      0.000  0.000  0.000     To: M       0.500  0.000  0.000   |
 |    From: M       0.500  0.000  0.000     To: K       0.333  0.333  0.000   |
 |    From: K       0.333  0.333  0.000     To: Γ      0.000  0.000  0.000   |
 *----------------------------------------------------------------------------*
 |  Plotting Hamiltonian in WF basis          :                 T             |
 *----------------------------------------------------------------------------*
 |  Writing data for Van der Waals post-proc  :                 F             |
 *----------------------------------------------------------------------------*
 *------------------------------- TRANSPORT ----------------------------------*
 |  Transport mode                            :              bulk             |
 |   Hamiltonian from external files          :                 F             |
 |   System extended in                       :              none             |
 |   Centre of the unit cell to which WF are translated (fract. coords):      |
 |                                       0.000000,    0.000000,    0.000000   |
 |  Fermi energy (eV)                         :             0.000             |
 *----------------------------------------------------------------------------*
 Time to read parameters        0.023 (sec)

 *---------------------------------- K-MESH ----------------------------------*
 +----------------------------------------------------------------------------+
 |                    Distance to Nearest-Neighbour Shells                    |
 |                    ------------------------------------                    |
 |          Shell             Distance (Ang^-1)          Multiplicity         |
 |          -----             -----------------          ------------         |
 |             1                   0.177260                      6            |
 |             2                   0.229891                      2            |
 |             3                   0.290295                     12            |
 |             4                   0.307023                      6            |
 |             5                   0.354519                      6            |
 |             6                   0.383553                     12            |
 |             7                   0.422533                     12            |
 |             8                   0.459782                      2            |
 |             9                   0.468985                     12            |
 |            10                   0.492768                     12            |
 |            11                   0.522300                     24            |
 |            12                   0.531779                      6            |
 |            13                   0.552868                     12            |
 |            14                   0.579343                     12            |
 |            15                   0.580589                     12            |
 |            16                   0.614046                      6            |
 |            17                   0.639119                     12            |
 |            18                   0.655669                     12            |
 |            19                   0.656770                     24            |
 |            20                   0.679207                     24            |
 |            21                   0.689673                      2            |
 |            22                   0.702985                     12            |
 |            23                   0.709039                      6            |
 |            24                   0.712089                     12            |
 |            25                   0.745376                     12            |
 |            26                   0.754925                     12            |
 |            27                   0.767106                     12            |
 |            28                   0.772657                     12            |
 |            29                   0.775457                     12            |
 |            30                   0.787320                     24            |
 |            31                   0.806132                     24            |
 |            32                   0.812306                     12            |
 |            33                   0.834024                     24            |
 |            34                   0.844210                     24            |
 |            35                   0.845065                     12            |
 |            36                   0.870884                     12            |
 +----------------------------------------------------------------------------+
 | The b-vectors are chosen automatically                                     |
 | Shell:  1 Multiplicity:  6                                                 |
 | b-vector 1 :        0.000000    0.177260    0.000000      (Ang^-1)         |
 | b-vector 2 :        0.153511    0.088630    0.000000      (Ang^-1)         |
 | b-vector 3 :        0.000000   -0.177260    0.000000      (Ang^-1)         |
 | b-vector 4 :        0.153511   -0.088630    0.000000      (Ang^-1)         |
 | b-vector 5 :       -0.153511   -0.088630    0.000000      (Ang^-1)         |
 | b-vector 6 :       -0.153511    0.088630    0.000000      (Ang^-1)         |
 | Shell:  1 w_b   10.6086192      (Ang^2)                                    |
 | B1 condition is not satisfied: Adding another shell                        |
 | Shell:  2 Multiplicity:  2                                                 |
 | b-vector 1 :        0.000000    0.000000    0.229891      (Ang^-1)         |
 | b-vector 2 :        0.000000    0.000000   -0.229891      (Ang^-1)         |
 | Shell:  1 w_b   10.6086192      (Ang^2)                                    |
 | Shell:  2 w_b    9.4607539      (Ang^2)                                    |
 | The following shells are used:   1,  2                                     |
 +----------------------------------------------------------------------------+
 |                        Shell   # Nearest-Neighbours                        |
 |                        -----   --------------------                        |
 |                          1               6                                 |
 |                          2               2                                 |
 +----------------------------------------------------------------------------+
 | Completeness relation is fully satisfied [Eq. (B1), PRB 56, 12847 (1997)]  |
 +----------------------------------------------------------------------------+
 |                  b_k Vectors (Ang^-1) and Weights (Ang^2)                  |
 |                  ----------------------------------------                  |
 |            No.         b_k(x)      b_k(y)      b_k(z)        w_b           |
 |            ---        --------------------------------     --------        |
 |             1         0.000000    0.177260    0.000000    10.608619        |
 |             2         0.153511    0.088630    0.000000    10.608619        |
 |             3         0.000000   -0.177260    0.000000    10.608619        |
 |             4         0.153511   -0.088630    0.000000    10.608619        |
 |             5        -0.153511   -0.088630    0.000000    10.608619        |
 |             6        -0.153511    0.088630    0.000000    10.608619        |
 |             7         0.000000    0.000000    0.229891     9.460754        |
 |             8         0.000000    0.000000   -0.229891     9.460754        |
 +----------------------------------------------------------------------------+
 |                           b_k Directions (Ang^-1)                          |
 |                           -----------------------                          |
 |            No.           x           y           z                         |
 |            ---        --------------------------------                     |
 |             1         0.000000    0.177260    0.000000                     |
 |             2         0.153511    0.088630    0.000000                     |
 |             3         0.153511   -0.088630    0.000000                     |
 |             4         0.000000    0.000000    0.229891                     |
 +----------------------------------------------------------------------------+
  
 Time to get kmesh              0.030 (sec)
 *============================================================================*
 |                              MEMORY ESTIMATE                               |
 |         Maximum RAM allocated during each phase of the calculation         |
 *============================================================================*
 |                        Disentanglement           81.29 Mb                  |
 |                            Wannierise:           49.97 Mb                  |
 |                                                                            |
 |   N.B. by setting optimisation=0 memory usage will be reduced to:          |
 |                        Disentanglement           77.15 Mb                  |
 |                            Wannierise:           31.97 Mb                  |
 |   However, this will result in more i/o and slow down the calculation      |
 |                          plot_wannier:           49.97 Mb                  |
 *----------------------------------------------------------------------------*
  
 Starting a new Wannier90 calculation ...


 Reading overlaps from crbr3.nbse2.bilayer.down.mmn    :  Created on 11Jul2023 at 12:44:56

 Reading projections from crbr3.nbse2.bilayer.down.amn :  Created on 11Jul2023 at 12:43:56

 Time to read overlaps          8.699 (sec)

 *------------------------------- DISENTANGLE --------------------------------*
 +----------------------------------------------------------------------------+
 |                              Energy  Windows                               |
 |                              ---------------                               |
 |                   Outer:   -6.00000  to   10.00000  (eV)                   |
 |                   Inner:   -6.00000  to    1.00000  (eV)                   |
 +----------------------------------------------------------------------------+
 |                        K-points with Frozen States                         |
 |                        ---------------------------                         |
 |     1     2     3     4     5     6     7     8     9    10    11    12    |
 |    13    14    15    16    17    18    19    20    21    22    23    24    |
 |    25    26    27    28    29    30    31    32    33    34    35    36    |
 +----------------------------------------------------------------------------+
   Number of target bands to extract:   64
 +----------------------------------------------------------------------------+
 |                                  Windows                                   |
 |                                  -------                                   |
 |               K-point      Ndimwin     Ndimfroz    Nfirstwin               |
 |               ----------------------------------------------               |
 |                   1           72           51          39                  |
 |                   2           72           51          39                  |
 |                   3           72           51          39                  |
 |                   4           72           51          39                  |
 |                   5           72           51          39                  |
 |                   6           72           51          39                  |
 |                   7           72           51          39                  |
 |                   8           72           51          39                  |
 |                   9           72           51          39                  |
 |                  10           72           51          39                  |
 |                  11           72           51          39                  |
 |                  12           72           51          39                  |
 |                  13           72           51          39                  |
 |                  14           72           51          39                  |
 |                  15           72           51          39                  |
 |                  16           72           51          39                  |
 |                  17           72           51          39                  |
 |                  18           72           51          39                  |
 |                  19           72           51          39                  |
 |                  20           72           51          39                  |
 |                  21           72           51          39                  |
 |                  22           72           51          39                  |
 |                  23           72           51          39                  |
 |                  24           72           51          39                  |
 |                  25           72           51          39                  |
 |                  26           72           51          39                  |
 |                  27           72           51          39                  |
 |                  28           72           51          39                  |
 |                  29           72           51          39                  |
 |                  30           72           51          39                  |
 |                  31           72           51          39                  |
 |                  32           72           51          39                  |
 |                  33           72           51          39                  |
 |                  34           72           51          39                  |
 |                  35           72           51          39                  |
 |                  36           72           51          39                  |
 +----------------------------------------------------------------------------+

                   Unitarised projection of Wannier functions                  
                   ------------------------------------------                  
   A_mn = <psi_m|g_n> --> S = A.A^+ --> U = S^-1/2.A
   In dis_project... done
   Using an inner window (linner = T)
   In dis_proj_froz...
 K-point   1 ndimwin:  72 we want the 13 leading eigenvector(s) of QPQ
  lambda(  1)=  0.000000000000
  lambda(  2)=  0.000000000000
  lambda(  3)=  0.000000000000
  lambda(  4)=  0.000000000000
  lambda(  5)=  0.000000000000
  lambda(  6)=  0.000000000000
  lambda(  7)=  0.000000000000
  lambda(  8)=  0.000000000000
  lambda(  9)=  0.000000000000
  lambda( 10)=  0.000000000000
  lambda( 11)=  0.000000000000
  lambda( 12)=  0.000000000000
  lambda( 13)=  0.000000000000
  lambda( 14)=  0.000000000000
  lambda( 15)=  0.000000000000
  lambda( 16)=  0.000000000000
  lambda( 17)=  0.000000000000
  lambda( 18)=  0.000000000000
  lambda( 19)=  0.000000000000
  lambda( 20)=  0.000000000000
  lambda( 21)=  0.000000000000
  lambda( 22)=  0.000000000000
  lambda( 23)=  0.000000000000
  lambda( 24)=  0.000000000000
  lambda( 25)=  0.000000000000
  lambda( 26)=  0.000000000000
  lambda( 27)=  0.000000000000
  lambda( 28)=  0.000000000000
  lambda( 29)=  0.000000000000
  lambda( 30)=  0.000000000000
  lambda( 31)=  0.000000000000
  lambda( 32)=  0.000000000000
  lambda( 33)=  0.000000000000
  lambda( 34)=  0.000000000000
  lambda( 35)=  0.000000000000
  lambda( 36)=  0.000000000000
  lambda( 37)=  0.000000000000
  lambda( 38)=  0.000000000000
  lambda( 39)=  0.000000000000
  lambda( 40)=  0.000000000000
  lambda( 41)=  0.000000000000
  lambda( 42)=  0.000000000000
  lambda( 43)=  0.000000000000
  lambda( 44)=  0.000000000000
  lambda( 45)=  0.000000000000
  lambda( 46)=  0.000000000000
  lambda( 47)=  0.000000000000
  lambda( 48)=  0.000000000000
  lambda( 49)=  0.000000000000
  lambda( 50)=  0.000000000000
  lambda( 51)=  0.000000000000
  lambda( 52)=  0.201669869938
  lambda( 53)=  0.207287261082
  lambda( 54)=  0.207290894639
  lambda( 55)=  0.335786821386
  lambda( 56)=  0.340942665185
  lambda( 57)=  0.340946485441
  lambda( 58)=  0.437569003265
  lambda( 59)=  0.437591114585
  lambda( 60)=  1.000000000000
  lambda( 61)=  1.000000000000
  lambda( 62)=  1.000000000000
  lambda( 63)=  1.000000000000
  lambda( 64)=  1.000000000000
  lambda( 65)=  1.000000000000
  lambda( 66)=  1.000000000000
  lambda( 67)=  1.000000000000
  lambda( 68)=  1.000000000000
  lambda( 69)=  1.000000000000
  lambda( 70)=  1.000000000000
  lambda( 71)=  1.000000000000
  lambda( 72)=  1.000000000000

 K-point   2 ndimwin:  72 we want the 13 leading eigenvector(s) of QPQ
  lambda(  1)=  0.000000000000
  lambda(  2)=  0.000000000000
  lambda(  3)=  0.000000000000
  lambda(  4)=  0.000000000000
  lambda(  5)=  0.000000000000
  lambda(  6)=  0.000000000000
  lambda(  7)=  0.000000000000
  lambda(  8)=  0.000000000000
  lambda(  9)=  0.000000000000
  lambda( 10)=  0.000000000000
  lambda( 11)=  0.000000000000
  lambda( 12)=  0.000000000000
  lambda( 13)=  0.000000000000
  lambda( 14)=  0.000000000000
  lambda( 15)=  0.000000000000
  lambda( 16)=  0.000000000000
  lambda( 17)=  0.000000000000
  lambda( 18)=  0.000000000000
  lambda( 19)=  0.000000000000
  lambda( 20)=  0.000000000000
  lambda( 21)=  0.000000000000
  lambda( 22)=  0.000000000000
  lambda( 23)=  0.000000000000
  lambda( 24)=  0.000000000000
  lambda( 25)=  0.000000000000
  lambda( 26)=  0.000000000000
  lambda( 27)=  0.000000000000
  lambda( 28)=  0.000000000000
  lambda( 29)=  0.000000000000
  lambda( 30)=  0.000000000000
  lambda( 31)=  0.000000000000
  lambda( 32)=  0.000000000000
  lambda( 33)=  0.000000000000
  lambda( 34)=  0.000000000000
  lambda( 35)=  0.000000000000
  lambda( 36)=  0.000000000000
  lambda( 37)=  0.000000000000
  lambda( 38)=  0.000000000000
  lambda( 39)=  0.000000000000
  lambda( 40)=  0.000000000000
  lambda( 41)=  0.000000000000
  lambda( 42)=  0.000000000000
  lambda( 43)=  0.000000000000
  lambda( 44)=  0.000000000000
  lambda( 45)=  0.000000000000
  lambda( 46)=  0.000000000000
  lambda( 47)=  0.000000000000
  lambda( 48)=  0.000000000000
  lambda( 49)=  0.000000000000
  lambda( 50)=  0.000000000000
  lambda( 51)=  0.000000000000
  lambda( 52)=  0.196254234611
  lambda( 53)=  0.201066496049
  lambda( 54)=  0.204374264006
  lambda( 55)=  0.310759307228
  lambda( 56)=  0.311872002934
  lambda( 57)=  0.344857622213
  lambda( 58)=  0.354695557001
  lambda( 59)=  0.427320264638
  lambda( 60)=  1.000000000000
  lambda( 61)=  1.000000000000
  lambda( 62)=  1.000000000000
  lambda( 63)=  1.000000000000
  lambda( 64)=  1.000000000000
  lambda( 65)=  1.000000000000
  lambda( 66)=  1.000000000000
  lambda( 67)=  1.000000000000
  lambda( 68)=  1.000000000000
  lambda( 69)=  1.000000000000
  lambda( 70)=  1.000000000000
  lambda( 71)=  1.000000000000
  lambda( 72)=  1.000000000000

 K-point   3 ndimwin:  72 we want the 13 leading eigenvector(s) of QPQ
  lambda(  1)=  0.000000000000
  lambda(  2)=  0.000000000000
  lambda(  3)=  0.000000000000
  lambda(  4)=  0.000000000000
  lambda(  5)=  0.000000000000
  lambda(  6)=  0.000000000000
  lambda(  7)=  0.000000000000
  lambda(  8)=  0.000000000000
  lambda(  9)=  0.000000000000
  lambda( 10)=  0.000000000000
  lambda( 11)=  0.000000000000
  lambda( 12)=  0.000000000000
  lambda( 13)=  0.000000000000
  lambda( 14)=  0.000000000000
  lambda( 15)=  0.000000000000
  lambda( 16)=  0.000000000000
  lambda( 17)=  0.000000000000
  lambda( 18)=  0.000000000000
  lambda( 19)=  0.000000000000
  lambda( 20)=  0.000000000000
  lambda( 21)=  0.000000000000
  lambda( 22)=  0.000000000000
  lambda( 23)=  0.000000000000
  lambda( 24)=  0.000000000000
  lambda( 25)=  0.000000000000
  lambda( 26)=  0.000000000000
  lambda( 27)=  0.000000000000
  lambda( 28)=  0.000000000000
  lambda( 29)=  0.000000000000
  lambda( 30)=  0.000000000000
  lambda( 31)=  0.000000000000
  lambda( 32)=  0.000000000000
  lambda( 33)=  0.000000000000
  lambda( 34)=  0.000000000000
  lambda( 35)=  0.000000000000
  lambda( 36)=  0.000000000000
  lambda( 37)=  0.000000000000
  lambda( 38)=  0.000000000000
  lambda( 39)=  0.000000000000
  lambda( 40)=  0.000000000000
  lambda( 41)=  0.000000000000
  lambda( 42)=  0.000000000000
  lambda( 43)=  0.000000000000
  lambda( 44)=  0.000000000000
  lambda( 45)=  0.000000000000
  lambda( 46)=  0.000000000000
  lambda( 47)=  0.000000000000
  lambda( 48)=  0.000000000000
  lambda( 49)=  0.000000000000
  lambda( 50)=  0.000000000000
  lambda( 51)=  0.000000000000
  lambda( 52)=  0.179429053234
  lambda( 53)=  0.185402395406
  lambda( 54)=  0.194897771255
  lambda( 55)=  0.226261047347
  lambda( 56)=  0.273739817949
  lambda( 57)=  0.274275675855
  lambda( 58)=  0.358611594923
  lambda( 59)=  0.404308306236
  lambda( 60)=  1.000000000000
  lambda( 61)=  1.000000000000
  lambda( 62)=  1.000000000000
  lambda( 63)=  1.000000000000
  lambda( 64)=  1.000000000000
  lambda( 65)=  1.000000000000
  lambda( 66)=  1.000000000000
  lambda( 67)=  1.000000000000
  lambda( 68)=  1.000000000000
  lambda( 69)=  1.000000000000
  lambda( 70)=  1.000000000000
  lambda( 71)=  1.000000000000
  lambda( 72)=  1.000000000000

 K-point   4 ndimwin:  72 we want the 13 leading eigenvector(s) of QPQ
  lambda(  1)=  0.000000000000
  lambda(  2)=  0.000000000000
  lambda(  3)=  0.000000000000
  lambda(  4)=  0.000000000000
  lambda(  5)=  0.000000000000
  lambda(  6)=  0.000000000000
  lambda(  7)=  0.000000000000
  lambda(  8)=  0.000000000000
  lambda(  9)=  0.000000000000
  lambda( 10)=  0.000000000000
  lambda( 11)=  0.000000000000
  lambda( 12)=  0.000000000000
  lambda( 13)=  0.000000000000
  lambda( 14)=  0.000000000000
  lambda( 15)=  0.000000000000
  lambda( 16)=  0.000000000000
  lambda( 17)=  0.000000000000
  lambda( 18)=  0.000000000000
  lambda( 19)=  0.000000000000
  lambda( 20)=  0.000000000000
  lambda( 21)=  0.000000000000
  lambda( 22)=  0.000000000000
  lambda( 23)=  0.000000000000
  lambda( 24)=  0.000000000000
  lambda( 25)=  0.000000000000
  lambda( 26)=  0.000000000000
  lambda( 27)=  0.000000000000
  lambda( 28)=  0.000000000000
  lambda( 29)=  0.000000000000
  lambda( 30)=  0.000000000000
  lambda( 31)=  0.000000000000
  lambda( 32)=  0.000000000000
  lambda( 33)=  0.000000000000
  lambda( 34)=  0.000000000000
  lambda( 35)=  0.000000000000
  lambda( 36)=  0.000000000000
  lambda( 37)=  0.000000000000
  lambda( 38)=  0.000000000000
  lambda( 39)=  0.000000000000
  lambda( 40)=  0.000000000000
  lambda( 41)=  0.000000000000
  lambda( 42)=  0.000000000000
  lambda( 43)=  0.000000000000
  lambda( 44)=  0.000000000000
  lambda( 45)=  0.000000000000
  lambda( 46)=  0.000000000000
  lambda( 47)=  0.000000000000
  lambda( 48)=  0.000000000000
  lambda( 49)=  0.000000000000
  lambda( 50)=  0.000000000000
  lambda( 51)=  0.000000000000
  lambda( 52)=  0.166239780319
  lambda( 53)=  0.172992172744
  lambda( 54)=  0.186585869146
  lambda( 55)=  0.187996041986
  lambda( 56)=  0.259892432207
  lambda( 57)=  0.261379655785
  lambda( 58)=  0.378900333493
  lambda( 59)=  0.380001487051
  lambda( 60)=  1.000000000000
  lambda( 61)=  1.000000000000
  lambda( 62)=  1.000000000000
  lambda( 63)=  1.000000000000
  lambda( 64)=  1.000000000000
  lambda( 65)=  1.000000000000
  lambda( 66)=  1.000000000000
  lambda( 67)=  1.000000000000
  lambda( 68)=  1.000000000000
  lambda( 69)=  1.000000000000
  lambda( 70)=  1.000000000000
  lambda( 71)=  1.000000000000
  lambda( 72)=  1.000000000000

 K-point   5 ndimwin:  72 we want the 13 leading eigenvector(s) of QPQ
  lambda(  1)=  0.000000000000
  lambda(  2)=  0.000000000000
  lambda(  3)=  0.000000000000
  lambda(  4)=  0.000000000000
  lambda(  5)=  0.000000000000
  lambda(  6)=  0.000000000000
  lambda(  7)=  0.000000000000
  lambda(  8)=  0.000000000000
  lambda(  9)=  0.000000000000
  lambda( 10)=  0.000000000000
  lambda( 11)=  0.000000000000
  lambda( 12)=  0.000000000000
  lambda( 13)=  0.000000000000
  lambda( 14)=  0.000000000000
  lambda( 15)=  0.000000000000
  lambda( 16)=  0.000000000000
  lambda( 17)=  0.000000000000
  lambda( 18)=  0.000000000000
  lambda( 19)=  0.000000000000
  lambda( 20)=  0.000000000000
  lambda( 21)=  0.000000000000
  lambda( 22)=  0.000000000000
  lambda( 23)=  0.000000000000
  lambda( 24)=  0.000000000000
  lambda( 25)=  0.000000000000
  lambda( 26)=  0.000000000000
  lambda( 27)=  0.000000000000
  lambda( 28)=  0.000000000000
  lambda( 29)=  0.000000000000
  lambda( 30)=  0.000000000000
  lambda( 31)=  0.000000000000
  lambda( 32)=  0.000000000000
  lambda( 33)=  0.000000000000
  lambda( 34)=  0.000000000000
  lambda( 35)=  0.000000000000
  lambda( 36)=  0.000000000000
  lambda( 37)=  0.000000000000
  lambda( 38)=  0.000000000000
  lambda( 39)=  0.000000000000
  lambda( 40)=  0.000000000000
  lambda( 41)=  0.000000000000
  lambda( 42)=  0.000000000000
  lambda( 43)=  0.000000000000
  lambda( 44)=  0.000000000000
  lambda( 45)=  0.000000000000
  lambda( 46)=  0.000000000000
  lambda( 47)=  0.000000000000
  lambda( 48)=  0.000000000000
  lambda( 49)=  0.000000000000
  lambda( 50)=  0.000000000000
  lambda( 51)=  0.000000000000
  lambda( 52)=  0.179429034608
  lambda( 53)=  0.185402446165
  lambda( 54)=  0.194897776025
  lambda( 55)=  0.226261054490
  lambda( 56)=  0.273739840911
  lambda( 57)=  0.274275651302
  lambda( 58)=  0.358611593695
  lambda( 59)=  0.404308304896
  lambda( 60)=  1.000000000000
  lambda( 61)=  1.000000000000
  lambda( 62)=  1.000000000000
  lambda( 63)=  1.000000000000
  lambda( 64)=  1.000000000000
  lambda( 65)=  1.000000000000
  lambda( 66)=  1.000000000000
  lambda( 67)=  1.000000000000
  lambda( 68)=  1.000000000000
  lambda( 69)=  1.000000000000
  lambda( 70)=  1.000000000000
  lambda( 71)=  1.000000000000
  lambda( 72)=  1.000000000000

 K-point   6 ndimwin:  72 we want the 13 leading eigenvector(s) of QPQ
  lambda(  1)=  0.000000000000
  lambda(  2)=  0.000000000000
  lambda(  3)=  0.000000000000
  lambda(  4)=  0.000000000000
  lambda(  5)=  0.000000000000
  lambda(  6)=  0.000000000000
  lambda(  7)=  0.000000000000
  lambda(  8)=  0.000000000000
  lambda(  9)=  0.000000000000
  lambda( 10)=  0.000000000000
  lambda( 11)=  0.000000000000
  lambda( 12)=  0.000000000000
  lambda( 13)=  0.000000000000
  lambda( 14)=  0.000000000000
  lambda( 15)=  0.000000000000
  lambda( 16)=  0.000000000000
  lambda( 17)=  0.000000000000
  lambda( 18)=  0.000000000000
  lambda( 19)=  0.000000000000
  lambda( 20)=  0.000000000000
  lambda( 21)=  0.000000000000
  lambda( 22)=  0.000000000000
  lambda( 23)=  0.000000000000
  lambda( 24)=  0.000000000000
  lambda( 25)=  0.000000000000
  lambda( 26)=  0.000000000000
  lambda( 27)=  0.000000000000
  lambda( 28)=  0.000000000000
  lambda( 29)=  0.000000000000
  lambda( 30)=  0.000000000000
  lambda( 31)=  0.000000000000
  lambda( 32)=  0.000000000000
  lambda( 33)=  0.000000000000
  lambda( 34)=  0.000000000000
  lambda( 35)=  0.000000000000
  lambda( 36)=  0.000000000000
  lambda( 37)=  0.000000000000
  lambda( 38)=  0.000000000000
  lambda( 39)=  0.000000000000
  lambda( 40)=  0.000000000000
  lambda( 41)=  0.000000000000
  lambda( 42)=  0.000000000000
  lambda( 43)=  0.000000000000
  lambda( 44)=  0.000000000000
  lambda( 45)=  0.000000000000
  lambda( 46)=  0.000000000000
  lambda( 47)=  0.000000000000
  lambda( 48)=  0.000000000000
  lambda( 49)=  0.000000000000
  lambda( 50)=  0.000000000000
  lambda( 51)=  0.000000000000
  lambda( 52)=  0.196254198886
  lambda( 53)=  0.201066507731
  lambda( 54)=  0.204374280556
  lambda( 55)=  0.310759325493
  lambda( 56)=  0.311872054742
  lambda( 57)=  0.344857585573
  lambda( 58)=  0.354695630439
  lambda( 59)=  0.427320267344
  lambda( 60)=  1.000000000000
  lambda( 61)=  1.000000000000
  lambda( 62)=  1.000000000000
  lambda( 63)=  1.000000000000
  lambda( 64)=  1.000000000000
  lambda( 65)=  1.000000000000
  lambda( 66)=  1.000000000000
  lambda( 67)=  1.000000000000
  lambda( 68)=  1.000000000000
  lambda( 69)=  1.000000000000
  lambda( 70)=  1.000000000000
  lambda( 71)=  1.000000000000
  lambda( 72)=  1.000000000000

 K-point   7 ndimwin:  72 we want the 13 leading eigenvector(s) of QPQ
  lambda(  1)=  0.000000000000
  lambda(  2)=  0.000000000000
  lambda(  3)=  0.000000000000
  lambda(  4)=  0.000000000000
  lambda(  5)=  0.000000000000
  lambda(  6)=  0.000000000000
  lambda(  7)=  0.000000000000
  lambda(  8)=  0.000000000000
  lambda(  9)=  0.000000000000
  lambda( 10)=  0.000000000000
  lambda( 11)=  0.000000000000
  lambda( 12)=  0.000000000000
  lambda( 13)=  0.000000000000
  lambda( 14)=  0.000000000000
  lambda( 15)=  0.000000000000
  lambda( 16)=  0.000000000000
  lambda( 17)=  0.000000000000
  lambda( 18)=  0.000000000000
  lambda( 19)=  0.000000000000
  lambda( 20)=  0.000000000000
  lambda( 21)=  0.000000000000
  lambda( 22)=  0.000000000000
  lambda( 23)=  0.000000000000
  lambda( 24)=  0.000000000000
  lambda( 25)=  0.000000000000
  lambda( 26)=  0.000000000000
  lambda( 27)=  0.000000000000
  lambda( 28)=  0.000000000000
  lambda( 29)=  0.000000000000
  lambda( 30)=  0.000000000000
  lambda( 31)=  0.000000000000
  lambda( 32)=  0.000000000000
  lambda( 33)=  0.000000000000
  lambda( 34)=  0.000000000000
  lambda( 35)=  0.000000000000
  lambda( 36)=  0.000000000000
  lambda( 37)=  0.000000000000
  lambda( 38)=  0.000000000000
  lambda( 39)=  0.000000000000
  lambda( 40)=  0.000000000000
  lambda( 41)=  0.000000000000
  lambda( 42)=  0.000000000000
  lambda( 43)=  0.000000000000
  lambda( 44)=  0.000000000000
  lambda( 45)=  0.000000000000
  lambda( 46)=  0.000000000000
  lambda( 47)=  0.000000000000
  lambda( 48)=  0.000000000000
  lambda( 49)=  0.000000000000
  lambda( 50)=  0.000000000000
  lambda( 51)=  0.000000000000
  lambda( 52)=  0.196253676481
  lambda( 53)=  0.201066961504
  lambda( 54)=  0.204374302710
  lambda( 55)=  0.310758715488
  lambda( 56)=  0.311872493650
  lambda( 57)=  0.344857771953
  lambda( 58)=  0.354695452524
  lambda( 59)=  0.427320285833
  lambda( 60)=  1.000000000000
  lambda( 61)=  1.000000000000
  lambda( 62)=  1.000000000000
  lambda( 63)=  1.000000000000
  lambda( 64)=  1.000000000000
  lambda( 65)=  1.000000000000
  lambda( 66)=  1.000000000000
  lambda( 67)=  1.000000000000
  lambda( 68)=  1.000000000000
  lambda( 69)=  1.000000000000
  lambda( 70)=  1.000000000000
  lambda( 71)=  1.000000000000
  lambda( 72)=  1.000000000000

 K-point   8 ndimwin:  72 we want the 13 leading eigenvector(s) of QPQ
  lambda(  1)=  0.000000000000
  lambda(  2)=  0.000000000000
  lambda(  3)=  0.000000000000
  lambda(  4)=  0.000000000000
  lambda(  5)=  0.000000000000
  lambda(  6)=  0.000000000000
  lambda(  7)=  0.000000000000
  lambda(  8)=  0.000000000000
  lambda(  9)=  0.000000000000
  lambda( 10)=  0.000000000000
  lambda( 11)=  0.000000000000
  lambda( 12)=  0.000000000000
  lambda( 13)=  0.000000000000
  lambda( 14)=  0.000000000000
  lambda( 15)=  0.000000000000
  lambda( 16)=  0.000000000000
  lambda( 17)=  0.000000000000
  lambda( 18)=  0.000000000000
  lambda( 19)=  0.000000000000
  lambda( 20)=  0.000000000000
  lambda( 21)=  0.000000000000
  lambda( 22)=  0.000000000000
  lambda( 23)=  0.000000000000
  lambda( 24)=  0.000000000000
  lambda( 25)=  0.000000000000
  lambda( 26)=  0.000000000000
  lambda( 27)=  0.000000000000
  lambda( 28)=  0.000000000000
  lambda( 29)=  0.000000000000
  lambda( 30)=  0.000000000000
  lambda( 31)=  0.000000000000
  lambda( 32)=  0.000000000000
  lambda( 33)=  0.000000000000
  lambda( 34)=  0.000000000000
  lambda( 35)=  0.000000000000
  lambda( 36)=  0.000000000000
  lambda( 37)=  0.000000000000
  lambda( 38)=  0.000000000000
  lambda( 39)=  0.000000000000
  lambda( 40)=  0.000000000000
  lambda( 41)=  0.000000000000
  lambda( 42)=  0.000000000000
  lambda( 43)=  0.000000000000
  lambda( 44)=  0.000000000000
  lambda( 45)=  0.000000000000
  lambda( 46)=  0.000000000000
  lambda( 47)=  0.000000000000
  lambda( 48)=  0.000000000000
  lambda( 49)=  0.000000000000
  lambda( 50)=  0.000000000000
  lambda( 51)=  0.000000000000
  lambda( 52)=  0.187211550526
  lambda( 53)=  0.191131564601
  lambda( 54)=  0.193958733874
  lambda( 55)=  0.250871030973
  lambda( 56)=  0.262757132649
  lambda( 57)=  0.325030465450
  lambda( 58)=  0.327316360142
  lambda( 59)=  0.406380750417
  lambda( 60)=  1.000000000000
  lambda( 61)=  1.000000000000
  lambda( 62)=  1.000000000000
  lambda( 63)=  1.000000000000
  lambda( 64)=  1.000000000000
  lambda( 65)=  1.000000000000
  lambda( 66)=  1.000000000000
  lambda( 67)=  1.000000000000
  lambda( 68)=  1.000000000000
  lambda( 69)=  1.000000000000
  lambda( 70)=  1.000000000000
  lambda( 71)=  1.000000000000
  lambda( 72)=  1.000000000000

 K-point   9 ndimwin:  72 we want the 13 leading eigenvector(s) of QPQ
  lambda(  1)=  0.000000000000
  lambda(  2)=  0.000000000000
  lambda(  3)=  0.000000000000
  lambda(  4)=  0.000000000000
  lambda(  5)=  0.000000000000
  lambda(  6)=  0.000000000000
  lambda(  7)=  0.000000000000
  lambda(  8)=  0.000000000000
  lambda(  9)=  0.000000000000
  lambda( 10)=  0.000000000000
  lambda( 11)=  0.000000000000
  lambda( 12)=  0.000000000000
  lambda( 13)=  0.000000000000
  lambda( 14)=  0.000000000000
  lambda( 15)=  0.000000000000
  lambda( 16)=  0.000000000000
  lambda( 17)=  0.000000000000
  lambda( 18)=  0.000000000000
  lambda( 19)=  0.000000000000
  lambda( 20)=  0.000000000000
  lambda( 21)=  0.000000000000
  lambda( 22)=  0.000000000000
  lambda( 23)=  0.000000000000
  lambda( 24)=  0.000000000000
  lambda( 25)=  0.000000000000
  lambda( 26)=  0.000000000000
  lambda( 27)=  0.000000000000
  lambda( 28)=  0.000000000000
  lambda( 29)=  0.000000000000
  lambda( 30)=  0.000000000000
  lambda( 31)=  0.000000000000
  lambda( 32)=  0.000000000000
  lambda( 33)=  0.000000000000
  lambda( 34)=  0.000000000000
  lambda( 35)=  0.000000000000
  lambda( 36)=  0.000000000000
  lambda( 37)=  0.000000000000
  lambda( 38)=  0.000000000000
  lambda( 39)=  0.000000000000
  lambda( 40)=  0.000000000000
  lambda( 41)=  0.000000000000
  lambda( 42)=  0.000000000000
  lambda( 43)=  0.000000000000
  lambda( 44)=  0.000000000000
  lambda( 45)=  0.000000000000
  lambda( 46)=  0.000000000000
  lambda( 47)=  0.000000000000
  lambda( 48)=  0.000000000000
  lambda( 49)=  0.000000000000
  lambda( 50)=  0.000000000000
  lambda( 51)=  0.000000000000
  lambda( 52)=  0.160132374520
  lambda( 53)=  0.173148872825
  lambda( 54)=  0.176349040803
  lambda( 55)=  0.188290543185
  lambda( 56)=  0.232956383876
  lambda( 57)=  0.302152993533
  lambda( 58)=  0.349930293269
  lambda( 59)=  0.377300277571
  lambda( 60)=  1.000000000000
  lambda( 61)=  1.000000000000
  lambda( 62)=  1.000000000000
  lambda( 63)=  1.000000000000
  lambda( 64)=  1.000000000000
  lambda( 65)=  1.000000000000
  lambda( 66)=  1.000000000000
  lambda( 67)=  1.000000000000
  lambda( 68)=  1.000000000000
  lambda( 69)=  1.000000000000
  lambda( 70)=  1.000000000000
  lambda( 71)=  1.000000000000
  lambda( 72)=  1.000000000000

 K-point  10 ndimwin:  72 we want the 13 leading eigenvector(s) of QPQ
  lambda(  1)=  0.000000000000
  lambda(  2)=  0.000000000000
  lambda(  3)=  0.000000000000
  lambda(  4)=  0.000000000000
  lambda(  5)=  0.000000000000
  lambda(  6)=  0.000000000000
  lambda(  7)=  0.000000000000
  lambda(  8)=  0.000000000000
  lambda(  9)=  0.000000000000
  lambda( 10)=  0.000000000000
  lambda( 11)=  0.000000000000
  lambda( 12)=  0.000000000000
  lambda( 13)=  0.000000000000
  lambda( 14)=  0.000000000000
  lambda( 15)=  0.000000000000
  lambda( 16)=  0.000000000000
  lambda( 17)=  0.000000000000
  lambda( 18)=  0.000000000000
  lambda( 19)=  0.000000000000
  lambda( 20)=  0.000000000000
  lambda( 21)=  0.000000000000
  lambda( 22)=  0.000000000000
  lambda( 23)=  0.000000000000
  lambda( 24)=  0.000000000000
  lambda( 25)=  0.000000000000
  lambda( 26)=  0.000000000000
  lambda( 27)=  0.000000000000
  lambda( 28)=  0.000000000000
  lambda( 29)=  0.000000000000
  lambda( 30)=  0.000000000000
  lambda( 31)=  0.000000000000
  lambda( 32)=  0.000000000000
  lambda( 33)=  0.000000000000
  lambda( 34)=  0.000000000000
  lambda( 35)=  0.000000000000
  lambda( 36)=  0.000000000000
  lambda( 37)=  0.000000000000
  lambda( 38)=  0.000000000000
  lambda( 39)=  0.000000000000
  lambda( 40)=  0.000000000000
  lambda( 41)=  0.000000000000
  lambda( 42)=  0.000000000000
  lambda( 43)=  0.000000000000
  lambda( 44)=  0.000000000000
  lambda( 45)=  0.000000000000
  lambda( 46)=  0.000000000000
  lambda( 47)=  0.000000000000
  lambda( 48)=  0.000000000000
  lambda( 49)=  0.000000000000
  lambda( 50)=  0.000000000000
  lambda( 51)=  0.000000000000
  lambda( 52)=  0.159898982828
  lambda( 53)=  0.173410906287
  lambda( 54)=  0.176404787490
  lambda( 55)=  0.188243385432
  lambda( 56)=  0.233097902499
  lambda( 57)=  0.302056123391
  lambda( 58)=  0.349885043097
  lambda( 59)=  0.377331680833
  lambda( 60)=  1.000000000000
  lambda( 61)=  1.000000000000
  lambda( 62)=  1.000000000000
  lambda( 63)=  1.000000000000
  lambda( 64)=  1.000000000000
  lambda( 65)=  1.000000000000
  lambda( 66)=  1.000000000000
  lambda( 67)=  1.000000000000
  lambda( 68)=  1.000000000000
  lambda( 69)=  1.000000000000
  lambda( 70)=  1.000000000000
  lambda( 71)=  1.000000000000
  lambda( 72)=  1.000000000000

 K-point  11 ndimwin:  72 we want the 13 leading eigenvector(s) of QPQ
  lambda(  1)=  0.000000000000
  lambda(  2)=  0.000000000000
  lambda(  3)=  0.000000000000
  lambda(  4)=  0.000000000000
  lambda(  5)=  0.000000000000
  lambda(  6)=  0.000000000000
  lambda(  7)=  0.000000000000
  lambda(  8)=  0.000000000000
  lambda(  9)=  0.000000000000
  lambda( 10)=  0.000000000000
  lambda( 11)=  0.000000000000
  lambda( 12)=  0.000000000000
  lambda( 13)=  0.000000000000
  lambda( 14)=  0.000000000000
  lambda( 15)=  0.000000000000
  lambda( 16)=  0.000000000000
  lambda( 17)=  0.000000000000
  lambda( 18)=  0.000000000000
  lambda( 19)=  0.000000000000
  lambda( 20)=  0.000000000000
  lambda( 21)=  0.000000000000
  lambda( 22)=  0.000000000000
  lambda( 23)=  0.000000000000
  lambda( 24)=  0.000000000000
  lambda( 25)=  0.000000000000
  lambda( 26)=  0.000000000000
  lambda( 27)=  0.000000000000
  lambda( 28)=  0.000000000000
  lambda( 29)=  0.000000000000
  lambda( 30)=  0.000000000000
  lambda( 31)=  0.000000000000
  lambda( 32)=  0.000000000000
  lambda( 33)=  0.000000000000
  lambda( 34)=  0.000000000000
  lambda( 35)=  0.000000000000
  lambda( 36)=  0.000000000000
  lambda( 37)=  0.000000000000
  lambda( 38)=  0.000000000000
  lambda( 39)=  0.000000000000
  lambda( 40)=  0.000000000000
  lambda( 41)=  0.000000000000
  lambda( 42)=  0.000000000000
  lambda( 43)=  0.000000000000
  lambda( 44)=  0.000000000000
  lambda( 45)=  0.000000000000
  lambda( 46)=  0.000000000000
  lambda( 47)=  0.000000000000
  lambda( 48)=  0.000000000000
  lambda( 49)=  0.000000000000
  lambda( 50)=  0.000000000000
  lambda( 51)=  0.000000000000
  lambda( 52)=  0.187215995342
  lambda( 53)=  0.191133388617
  lambda( 54)=  0.193959038240
  lambda( 55)=  0.250882803354
  lambda( 56)=  0.262753425020
  lambda( 57)=  0.325028088627
  lambda( 58)=  0.327313291807
  lambda( 59)=  0.406368616950
  lambda( 60)=  1.000000000000
  lambda( 61)=  1.000000000000
  lambda( 62)=  1.000000000000
  lambda( 63)=  1.000000000000
  lambda( 64)=  1.000000000000
  lambda( 65)=  1.000000000000
  lambda( 66)=  1.000000000000
  lambda( 67)=  1.000000000000
  lambda( 68)=  1.000000000000
  lambda( 69)=  1.000000000000
  lambda( 70)=  1.000000000000
  lambda( 71)=  1.000000000000
  lambda( 72)=  1.000000000000

 K-point  12 ndimwin:  72 we want the 13 leading eigenvector(s) of QPQ
  lambda(  1)=  0.000000000000
  lambda(  2)=  0.000000000000
  lambda(  3)=  0.000000000000
  lambda(  4)=  0.000000000000
  lambda(  5)=  0.000000000000
  lambda(  6)=  0.000000000000
  lambda(  7)=  0.000000000000
  lambda(  8)=  0.000000000000
  lambda(  9)=  0.000000000000
  lambda( 10)=  0.000000000000
  lambda( 11)=  0.000000000000
  lambda( 12)=  0.000000000000
  lambda( 13)=  0.000000000000
  lambda( 14)=  0.000000000000
  lambda( 15)=  0.000000000000
  lambda( 16)=  0.000000000000
  lambda( 17)=  0.000000000000
  lambda( 18)=  0.000000000000
  lambda( 19)=  0.000000000000
  lambda( 20)=  0.000000000000
  lambda( 21)=  0.000000000000
  lambda( 22)=  0.000000000000
  lambda( 23)=  0.000000000000
  lambda( 24)=  0.000000000000
  lambda( 25)=  0.000000000000
  lambda( 26)=  0.000000000000
  lambda( 27)=  0.000000000000
  lambda( 28)=  0.000000000000
  lambda( 29)=  0.000000000000
  lambda( 30)=  0.000000000000
  lambda( 31)=  0.000000000000
  lambda( 32)=  0.000000000000
  lambda( 33)=  0.000000000000
  lambda( 34)=  0.000000000000
  lambda( 35)=  0.000000000000
  lambda( 36)=  0.000000000000
  lambda( 37)=  0.000000000000
  lambda( 38)=  0.000000000000
  lambda( 39)=  0.000000000000
  lambda( 40)=  0.000000000000
  lambda( 41)=  0.000000000000
  lambda( 42)=  0.000000000000
  lambda( 43)=  0.000000000000
  lambda( 44)=  0.000000000000
  lambda( 45)=  0.000000000000
  lambda( 46)=  0.000000000000
  lambda( 47)=  0.000000000000
  lambda( 48)=  0.000000000000
  lambda( 49)=  0.000000000000
  lambda( 50)=  0.000000000000
  lambda( 51)=  0.000000000000
  lambda( 52)=  0.196252211473
  lambda( 53)=  0.201064842683
  lambda( 54)=  0.204380804014
  lambda( 55)=  0.310758996636
  lambda( 56)=  0.311872454123
  lambda( 57)=  0.344853069138
  lambda( 58)=  0.354710220859
  lambda( 59)=  0.427305521955
  lambda( 60)=  1.000000000000
  lambda( 61)=  1.000000000000
  lambda( 62)=  1.000000000000
  lambda( 63)=  1.000000000000
  lambda( 64)=  1.000000000000
  lambda( 65)=  1.000000000000
  lambda( 66)=  1.000000000000
  lambda( 67)=  1.000000000000
  lambda( 68)=  1.000000000000
  lambda( 69)=  1.000000000000
  lambda( 70)=  1.000000000000
  lambda( 71)=  1.000000000000
  lambda( 72)=  1.000000000000

 K-point  13 ndimwin:  72 we want the 13 leading eigenvector(s) of QPQ
  lambda(  1)=  0.000000000000
  lambda(  2)=  0.000000000000
  lambda(  3)=  0.000000000000
  lambda(  4)=  0.000000000000
  lambda(  5)=  0.000000000000
  lambda(  6)=  0.000000000000
  lambda(  7)=  0.000000000000
  lambda(  8)=  0.000000000000
  lambda(  9)=  0.000000000000
  lambda( 10)=  0.000000000000
  lambda( 11)=  0.000000000000
  lambda( 12)=  0.000000000000
  lambda( 13)=  0.000000000000
  lambda( 14)=  0.000000000000
  lambda( 15)=  0.000000000000
  lambda( 16)=  0.000000000000
  lambda( 17)=  0.000000000000
  lambda( 18)=  0.000000000000
  lambda( 19)=  0.000000000000
  lambda( 20)=  0.000000000000
  lambda( 21)=  0.000000000000
  lambda( 22)=  0.000000000000
  lambda( 23)=  0.000000000000
  lambda( 24)=  0.000000000000
  lambda( 25)=  0.000000000000
  lambda( 26)=  0.000000000000
  lambda( 27)=  0.000000000000
  lambda( 28)=  0.000000000000
  lambda( 29)=  0.000000000000
  lambda( 30)=  0.000000000000
  lambda( 31)=  0.000000000000
  lambda( 32)=  0.000000000000
  lambda( 33)=  0.000000000000
  lambda( 34)=  0.000000000000
  lambda( 35)=  0.000000000000
  lambda( 36)=  0.000000000000
  lambda( 37)=  0.000000000000
  lambda( 38)=  0.000000000000
  lambda( 39)=  0.000000000000
  lambda( 40)=  0.000000000000
  lambda( 41)=  0.000000000000
  lambda( 42)=  0.000000000000
  lambda( 43)=  0.000000000000
  lambda( 44)=  0.000000000000
  lambda( 45)=  0.000000000000
  lambda( 46)=  0.000000000000
  lambda( 47)=  0.000000000000
  lambda( 48)=  0.000000000000
  lambda( 49)=  0.000000000000
  lambda( 50)=  0.000000000000
  lambda( 51)=  0.000000000000
  lambda( 52)=  0.179428108482
  lambda( 53)=  0.185403066155
  lambda( 54)=  0.194898217654
  lambda( 55)=  0.226261043274
  lambda( 56)=  0.273739059790
  lambda( 57)=  0.274276209034
  lambda( 58)=  0.358611589583
  lambda( 59)=  0.404308298888
  lambda( 60)=  1.000000000000
  lambda( 61)=  1.000000000000
  lambda( 62)=  1.000000000000
  lambda( 63)=  1.000000000000
  lambda( 64)=  1.000000000000
  lambda( 65)=  1.000000000000
  lambda( 66)=  1.000000000000
  lambda( 67)=  1.000000000000
  lambda( 68)=  1.000000000000
  lambda( 69)=  1.000000000000
  lambda( 70)=  1.000000000000
  lambda( 71)=  1.000000000000
  lambda( 72)=  1.000000000000

 K-point  14 ndimwin:  72 we want the 13 leading eigenvector(s) of QPQ
  lambda(  1)=  0.000000000000
  lambda(  2)=  0.000000000000
  lambda(  3)=  0.000000000000
  lambda(  4)=  0.000000000000
  lambda(  5)=  0.000000000000
  lambda(  6)=  0.000000000000
  lambda(  7)=  0.000000000000
  lambda(  8)=  0.000000000000
  lambda(  9)=  0.000000000000
  lambda( 10)=  0.000000000000
  lambda( 11)=  0.000000000000
  lambda( 12)=  0.000000000000
  lambda( 13)=  0.000000000000
  lambda( 14)=  0.000000000000
  lambda( 15)=  0.000000000000
  lambda( 16)=  0.000000000000
  lambda( 17)=  0.000000000000
  lambda( 18)=  0.000000000000
  lambda( 19)=  0.000000000000
  lambda( 20)=  0.000000000000
  lambda( 21)=  0.000000000000
  lambda( 22)=  0.000000000000
  lambda( 23)=  0.000000000000
  lambda( 24)=  0.000000000000
  lambda( 25)=  0.000000000000
  lambda( 26)=  0.000000000000
  lambda( 27)=  0.000000000000
  lambda( 28)=  0.000000000000
  lambda( 29)=  0.000000000000
  lambda( 30)=  0.000000000000
  lambda( 31)=  0.000000000000
  lambda( 32)=  0.000000000000
  lambda( 33)=  0.000000000000
  lambda( 34)=  0.000000000000
  lambda( 35)=  0.000000000000
  lambda( 36)=  0.000000000000
  lambda( 37)=  0.000000000000
  lambda( 38)=  0.000000000000
  lambda( 39)=  0.000000000000
  lambda( 40)=  0.000000000000
  lambda( 41)=  0.000000000000
  lambda( 42)=  0.000000000000
  lambda( 43)=  0.000000000000
  lambda( 44)=  0.000000000000
  lambda( 45)=  0.000000000000
  lambda( 46)=  0.000000000000
  lambda( 47)=  0.000000000000
  lambda( 48)=  0.000000000000
  lambda( 49)=  0.000000000000
  lambda( 50)=  0.000000000000
  lambda( 51)=  0.000000000000
  lambda( 52)=  0.159896158956
  lambda( 53)=  0.173411103161
  lambda( 54)=  0.176400696492
  lambda( 55)=  0.188242475002
  lambda( 56)=  0.233101282272
  lambda( 57)=  0.302057399182
  lambda( 58)=  0.349884057497
  lambda( 59)=  0.377337011405
  lambda( 60)=  1.000000000000
  lambda( 61)=  1.000000000000
  lambda( 62)=  1.000000000000
  lambda( 63)=  1.000000000000
  lambda( 64)=  1.000000000000
  lambda( 65)=  1.000000000000
  lambda( 66)=  1.000000000000
  lambda( 67)=  1.000000000000
  lambda( 68)=  1.000000000000
  lambda( 69)=  1.000000000000
  lambda( 70)=  1.000000000000
  lambda( 71)=  1.000000000000
  lambda( 72)=  1.000000000000

 K-point  15 ndimwin:  72 we want the 13 leading eigenvector(s) of QPQ
  lambda(  1)=  0.000000000000
  lambda(  2)=  0.000000000000
  lambda(  3)=  0.000000000000
  lambda(  4)=  0.000000000000
  lambda(  5)=  0.000000000000
  lambda(  6)=  0.000000000000
  lambda(  7)=  0.000000000000
  lambda(  8)=  0.000000000000
  lambda(  9)=  0.000000000000
  lambda( 10)=  0.000000000000
  lambda( 11)=  0.000000000000
  lambda( 12)=  0.000000000000
  lambda( 13)=  0.000000000000
  lambda( 14)=  0.000000000000
  lambda( 15)=  0.000000000000
  lambda( 16)=  0.000000000000
  lambda( 17)=  0.000000000000
  lambda( 18)=  0.000000000000
  lambda( 19)=  0.000000000000
  lambda( 20)=  0.000000000000
  lambda( 21)=  0.000000000000
  lambda( 22)=  0.000000000000
  lambda( 23)=  0.000000000000
  lambda( 24)=  0.000000000000
  lambda( 25)=  0.000000000000
  lambda( 26)=  0.000000000000
  lambda( 27)=  0.000000000000
  lambda( 28)=  0.000000000000
  lambda( 29)=  0.000000000000
  lambda( 30)=  0.000000000000
  lambda( 31)=  0.000000000000
  lambda( 32)=  0.000000000000
  lambda( 33)=  0.000000000000
  lambda( 34)=  0.000000000000
  lambda( 35)=  0.000000000000
  lambda( 36)=  0.000000000000
  lambda( 37)=  0.000000000000
  lambda( 38)=  0.000000000000
  lambda( 39)=  0.000000000000
  lambda( 40)=  0.000000000000
  lambda( 41)=  0.000000000000
  lambda( 42)=  0.000000000000
  lambda( 43)=  0.000000000000
  lambda( 44)=  0.000000000000
  lambda( 45)=  0.000000000000
  lambda( 46)=  0.000000000000
  lambda( 47)=  0.000000000000
  lambda( 48)=  0.000000000000
  lambda( 49)=  0.000000000000
  lambda( 50)=  0.000000000000
  lambda( 51)=  0.000000000000
  lambda( 52)=  0.147117065383
  lambda( 53)=  0.148290550813
  lambda( 54)=  0.148637379267
  lambda( 55)=  0.198732481233
  lambda( 56)=  0.210750096979
  lambda( 57)=  0.337032028715
  lambda( 58)=  0.338125253634
  lambda( 59)=  0.340308640819
  lambda( 60)=  1.000000000000
  lambda( 61)=  1.000000000000
  lambda( 62)=  1.000000000000
  lambda( 63)=  1.000000000000
  lambda( 64)=  1.000000000000
  lambda( 65)=  1.000000000000
  lambda( 66)=  1.000000000000
  lambda( 67)=  1.000000000000
  lambda( 68)=  1.000000000000
  lambda( 69)=  1.000000000000
  lambda( 70)=  1.000000000000
  lambda( 71)=  1.000000000000
  lambda( 72)=  1.000000000000

 K-point  16 ndimwin:  72 we want the 13 leading eigenvector(s) of QPQ
  lambda(  1)=  0.000000000000
  lambda(  2)=  0.000000000000
  lambda(  3)=  0.000000000000
  lambda(  4)=  0.000000000000
  lambda(  5)=  0.000000000000
  lambda(  6)=  0.000000000000
  lambda(  7)=  0.000000000000
  lambda(  8)=  0.000000000000
  lambda(  9)=  0.000000000000
  lambda( 10)=  0.000000000000
  lambda( 11)=  0.000000000000
  lambda( 12)=  0.000000000000
  lambda( 13)=  0.000000000000
  lambda( 14)=  0.000000000000
  lambda( 15)=  0.000000000000
  lambda( 16)=  0.000000000000
  lambda( 17)=  0.000000000000
  lambda( 18)=  0.000000000000
  lambda( 19)=  0.000000000000
  lambda( 20)=  0.000000000000
  lambda( 21)=  0.000000000000
  lambda( 22)=  0.000000000000
  lambda( 23)=  0.000000000000
  lambda( 24)=  0.000000000000
  lambda( 25)=  0.000000000000
  lambda( 26)=  0.000000000000
  lambda( 27)=  0.000000000000
  lambda( 28)=  0.000000000000
  lambda( 29)=  0.000000000000
  lambda( 30)=  0.000000000000
  lambda( 31)=  0.000000000000
  lambda( 32)=  0.000000000000
  lambda( 33)=  0.000000000000
  lambda( 34)=  0.000000000000
  lambda( 35)=  0.000000000000
  lambda( 36)=  0.000000000000
  lambda( 37)=  0.000000000000
  lambda( 38)=  0.000000000000
  lambda( 39)=  0.000000000000
  lambda( 40)=  0.000000000000
  lambda( 41)=  0.000000000000
  lambda( 42)=  0.000000000000
  lambda( 43)=  0.000000000000
  lambda( 44)=  0.000000000000
  lambda( 45)=  0.000000000000
  lambda( 46)=  0.000000000000
  lambda( 47)=  0.000000000000
  lambda( 48)=  0.000000000000
  lambda( 49)=  0.000000000000
  lambda( 50)=  0.000000000000
  lambda( 51)=  0.000000000000
  lambda( 52)=  0.160134203609
  lambda( 53)=  0.173154086065
  lambda( 54)=  0.176356512006
  lambda( 55)=  0.188296445546
  lambda( 56)=  0.232948826458
  lambda( 57)=  0.302151209318
  lambda( 58)=  0.349925774536
  lambda( 59)=  0.377290679757
  lambda( 60)=  1.000000000000
  lambda( 61)=  1.000000000000
  lambda( 62)=  1.000000000000
  lambda( 63)=  1.000000000000
  lambda( 64)=  1.000000000000
  lambda( 65)=  1.000000000000
  lambda( 66)=  1.000000000000
  lambda( 67)=  1.000000000000
  lambda( 68)=  1.000000000000
  lambda( 69)=  1.000000000000
  lambda( 70)=  1.000000000000
  lambda( 71)=  1.000000000000
  lambda( 72)=  1.000000000000

 K-point  17 ndimwin:  72 we want the 13 leading eigenvector(s) of QPQ
  lambda(  1)=  0.000000000000
  lambda(  2)=  0.000000000000
  lambda(  3)=  0.000000000000
  lambda(  4)=  0.000000000000
  lambda(  5)=  0.000000000000
  lambda(  6)=  0.000000000000
  lambda(  7)=  0.000000000000
  lambda(  8)=  0.000000000000
  lambda(  9)=  0.000000000000
  lambda( 10)=  0.000000000000
  lambda( 11)=  0.000000000000
  lambda( 12)=  0.000000000000
  lambda( 13)=  0.000000000000
  lambda( 14)=  0.000000000000
  lambda( 15)=  0.000000000000
  lambda( 16)=  0.000000000000
  lambda( 17)=  0.000000000000
  lambda( 18)=  0.000000000000
  lambda( 19)=  0.000000000000
  lambda( 20)=  0.000000000000
  lambda( 21)=  0.000000000000
  lambda( 22)=  0.000000000000
  lambda( 23)=  0.000000000000
  lambda( 24)=  0.000000000000
  lambda( 25)=  0.000000000000
  lambda( 26)=  0.000000000000
  lambda( 27)=  0.000000000000
  lambda( 28)=  0.000000000000
  lambda( 29)=  0.000000000000
  lambda( 30)=  0.000000000000
  lambda( 31)=  0.000000000000
  lambda( 32)=  0.000000000000
  lambda( 33)=  0.000000000000
  lambda( 34)=  0.000000000000
  lambda( 35)=  0.000000000000
  lambda( 36)=  0.000000000000
  lambda( 37)=  0.000000000000
  lambda( 38)=  0.000000000000
  lambda( 39)=  0.000000000000
  lambda( 40)=  0.000000000000
  lambda( 41)=  0.000000000000
  lambda( 42)=  0.000000000000
  lambda( 43)=  0.000000000000
  lambda( 44)=  0.000000000000
  lambda( 45)=  0.000000000000
  lambda( 46)=  0.000000000000
  lambda( 47)=  0.000000000000
  lambda( 48)=  0.000000000000
  lambda( 49)=  0.000000000000
  lambda( 50)=  0.000000000000
  lambda( 51)=  0.000000000000
  lambda( 52)=  0.179430257188
  lambda( 53)=  0.185404486206
  lambda( 54)=  0.194904622342
  lambda( 55)=  0.226271015971
  lambda( 56)=  0.273735564939
  lambda( 57)=  0.274271776401
  lambda( 58)=  0.358605710229
  lambda( 59)=  0.404297075229
  lambda( 60)=  1.000000000000
  lambda( 61)=  1.000000000000
  lambda( 62)=  1.000000000000
  lambda( 63)=  1.000000000000
  lambda( 64)=  1.000000000000
  lambda( 65)=  1.000000000000
  lambda( 66)=  1.000000000000
  lambda( 67)=  1.000000000000
  lambda( 68)=  1.000000000000
  lambda( 69)=  1.000000000000
  lambda( 70)=  1.000000000000
  lambda( 71)=  1.000000000000
  lambda( 72)=  1.000000000000

 K-point  18 ndimwin:  72 we want the 13 leading eigenvector(s) of QPQ
  lambda(  1)=  0.000000000000
  lambda(  2)=  0.000000000000
  lambda(  3)=  0.000000000000
  lambda(  4)=  0.000000000000
  lambda(  5)=  0.000000000000
  lambda(  6)=  0.000000000000
  lambda(  7)=  0.000000000000
  lambda(  8)=  0.000000000000
  lambda(  9)=  0.000000000000
  lambda( 10)=  0.000000000000
  lambda( 11)=  0.000000000000
  lambda( 12)=  0.000000000000
  lambda( 13)=  0.000000000000
  lambda( 14)=  0.000000000000
  lambda( 15)=  0.000000000000
  lambda( 16)=  0.000000000000
  lambda( 17)=  0.000000000000
  lambda( 18)=  0.000000000000
  lambda( 19)=  0.000000000000
  lambda( 20)=  0.000000000000
  lambda( 21)=  0.000000000000
  lambda( 22)=  0.000000000000
  lambda( 23)=  0.000000000000
  lambda( 24)=  0.000000000000
  lambda( 25)=  0.000000000000
  lambda( 26)=  0.000000000000
  lambda( 27)=  0.000000000000
  lambda( 28)=  0.000000000000
  lambda( 29)=  0.000000000000
  lambda( 30)=  0.000000000000
  lambda( 31)=  0.000000000000
  lambda( 32)=  0.000000000000
  lambda( 33)=  0.000000000000
  lambda( 34)=  0.000000000000
  lambda( 35)=  0.000000000000
  lambda( 36)=  0.000000000000
  lambda( 37)=  0.000000000000
  lambda( 38)=  0.000000000000
  lambda( 39)=  0.000000000000
  lambda( 40)=  0.000000000000
  lambda( 41)=  0.000000000000
  lambda( 42)=  0.000000000000
  lambda( 43)=  0.000000000000
  lambda( 44)=  0.000000000000
  lambda( 45)=  0.000000000000
  lambda( 46)=  0.000000000000
  lambda( 47)=  0.000000000000
  lambda( 48)=  0.000000000000
  lambda( 49)=  0.000000000000
  lambda( 50)=  0.000000000000
  lambda( 51)=  0.000000000000
  lambda( 52)=  0.187214417161
  lambda( 53)=  0.191134133814
  lambda( 54)=  0.193959904527
  lambda( 55)=  0.250882802484
  lambda( 56)=  0.262753232585
  lambda( 57)=  0.325028219789
  lambda( 58)=  0.327313326546
  lambda( 59)=  0.406368668807
  lambda( 60)=  1.000000000000
  lambda( 61)=  1.000000000000
  lambda( 62)=  1.000000000000
  lambda( 63)=  1.000000000000
  lambda( 64)=  1.000000000000
  lambda( 65)=  1.000000000000
  lambda( 66)=  1.000000000000
  lambda( 67)=  1.000000000000
  lambda( 68)=  1.000000000000
  lambda( 69)=  1.000000000000
  lambda( 70)=  1.000000000000
  lambda( 71)=  1.000000000000
  lambda( 72)=  1.000000000000

 K-point  19 ndimwin:  72 we want the 13 leading eigenvector(s) of QPQ
  lambda(  1)=  0.000000000000
  lambda(  2)=  0.000000000000
  lambda(  3)=  0.000000000000
  lambda(  4)=  0.000000000000
  lambda(  5)=  0.000000000000
  lambda(  6)=  0.000000000000
  lambda(  7)=  0.000000000000
  lambda(  8)=  0.000000000000
  lambda(  9)=  0.000000000000
  lambda( 10)=  0.000000000000
  lambda( 11)=  0.000000000000
  lambda( 12)=  0.000000000000
  lambda( 13)=  0.000000000000
  lambda( 14)=  0.000000000000
  lambda( 15)=  0.000000000000
  lambda( 16)=  0.000000000000
  lambda( 17)=  0.000000000000
  lambda( 18)=  0.000000000000
  lambda( 19)=  0.000000000000
  lambda( 20)=  0.000000000000
  lambda( 21)=  0.000000000000
  lambda( 22)=  0.000000000000
  lambda( 23)=  0.000000000000
  lambda( 24)=  0.000000000000
  lambda( 25)=  0.000000000000
  lambda( 26)=  0.000000000000
  lambda( 27)=  0.000000000000
  lambda( 28)=  0.000000000000
  lambda( 29)=  0.000000000000
  lambda( 30)=  0.000000000000
  lambda( 31)=  0.000000000000
  lambda( 32)=  0.000000000000
  lambda( 33)=  0.000000000000
  lambda( 34)=  0.000000000000
  lambda( 35)=  0.000000000000
  lambda( 36)=  0.000000000000
  lambda( 37)=  0.000000000000
  lambda( 38)=  0.000000000000
  lambda( 39)=  0.000000000000
  lambda( 40)=  0.000000000000
  lambda( 41)=  0.000000000000
  lambda( 42)=  0.000000000000
  lambda( 43)=  0.000000000000
  lambda( 44)=  0.000000000000
  lambda( 45)=  0.000000000000
  lambda( 46)=  0.000000000000
  lambda( 47)=  0.000000000000
  lambda( 48)=  0.000000000000
  lambda( 49)=  0.000000000000
  lambda( 50)=  0.000000000000
  lambda( 51)=  0.000000000000
  lambda( 52)=  0.166239040326
  lambda( 53)=  0.172992801122
  lambda( 54)=  0.186585991258
  lambda( 55)=  0.187996307187
  lambda( 56)=  0.259893023636
  lambda( 57)=  0.261379213957
  lambda( 58)=  0.378900207282
  lambda( 59)=  0.380001590609
  lambda( 60)=  1.000000000000
  lambda( 61)=  1.000000000000
  lambda( 62)=  1.000000000000
  lambda( 63)=  1.000000000000
  lambda( 64)=  1.000000000000
  lambda( 65)=  1.000000000000
  lambda( 66)=  1.000000000000
  lambda( 67)=  1.000000000000
  lambda( 68)=  1.000000000000
  lambda( 69)=  1.000000000000
  lambda( 70)=  1.000000000000
  lambda( 71)=  1.000000000000
  lambda( 72)=  1.000000000000

[...]
  WF centre and spread   56  (  1.697223,  2.947193,  1.572258 )     1.88292061
  WF centre and spread   57  (  1.697326,  3.094711,  1.575480 )     2.02721709
  WF centre and spread   58  (  1.694543,  2.814170,  1.573335 )     2.01772112
  WF centre and spread   59  ( -1.700788,  2.954671,  1.571822 )     1.88243609
  WF centre and spread   60  ( -1.704233,  3.108722,  1.573608 )     2.02186878
  WF centre and spread   61  ( -1.704507,  2.828041,  1.575571 )     2.02347505
  WF centre and spread   62  (  3.415089, -0.013679,  1.572293 )     1.88504632
  WF centre and spread   63  (  3.419025,  0.138265,  1.574237 )     2.01620372
  WF centre and spread   64  (  3.418715, -0.141648,  1.574540 )     2.02673584
  Sum of centres and spreads (109.146038,141.796667,280.934648 )   126.99774296
 
    450    -0.363E-04     0.0156207198      126.9977057537      15.25  <-- CONV
        O_D=      0.0228179 O_OD=      7.3318968 O_TOT=    126.9977058 <-- SPRD
 Delta: O_D= -0.9041785E-06 O_OD= -0.3544557E-04 O_TOT= -0.3634975E-04 <-- DLTA
 ------------------------------------------------------------------------------
 Cycle:    500
  LINE --> Iteration                     :         500
  LINE --> Spread at initial point       :   126.995469769105     
  LINE --> Spread at trial step          :   126.995468618868     
  LINE --> Slope along search direction  : -5.810266516329743E-007
  LINE --> ||SD gradient||^2             :  1.919090487353251E-004
  LINE --> Trial step length             :   2.00000000000000     
  LINE --> Optimal parabolic step length :   98.3426046689619     
  LINE --> Spread at predicted minimum   :   126.995441199268     
  LINE --> CG coefficient                :  0.507738429780691     
  WF centre and spread    1  (  0.000000,  3.938457,  8.027924 )     0.64224394
  WF centre and spread    2  ( -0.000099,  3.934841,  8.026439 )     0.71311763
  WF centre and spread    3  (  0.000098,  3.942108,  8.026439 )     0.71327476
  WF centre and spread    4  ( -0.000727,  3.930634,  8.027524 )     0.69179854
  WF centre and spread    5  (  0.000726,  3.946300,  8.027524 )     0.69177871
  WF centre and spread    6  (  3.411022,  1.968541,  8.004747 )     2.51202369
  WF centre and spread    7  (  3.412414,  1.963775,  8.017411 )     1.60978123
  WF centre and spread    8  (  3.409049,  1.974526,  8.017411 )     1.61001244
  WF centre and spread    9  (  3.409181,  1.975654,  8.025745 )     1.76130010
  WF centre and spread   10  (  3.412402,  1.964173,  8.025737 )     1.76180800
  WF centre and spread   11  (  1.242587,  2.197083,  6.587040 )     1.66369956
  WF centre and spread   12  (  1.254080,  2.194216,  6.647677 )     1.69723089
  WF centre and spread   13  (  1.215828,  2.192672,  6.626631 )     1.64753986
  WF centre and spread   14  (  4.297928, -0.020720,  6.586647 )     1.66308975
  WF centre and spread   15  (  4.335793, -0.016607,  6.609157 )     1.59650854
  WF centre and spread   16  (  4.273026, -0.039987,  6.665833 )     1.74647684
  WF centre and spread   17  ( -2.130763,  3.732126,  6.586582 )     1.66113713
  WF centre and spread   18  ( -2.093122,  3.735135,  6.657304 )     1.72789453
  WF centre and spread   19  ( -2.162469,  3.748874,  6.617592 )     1.61756278
  WF centre and spread   20  (  2.154044,  3.748729,  9.440686 )     1.61347249
  WF centre and spread   21  (  2.110923,  3.751061,  9.363264 )     1.72757165
  WF centre and spread   22  (  2.183997,  3.764730,  9.401901 )     1.61132617
  WF centre and spread   23  (  2.497660, -0.008699,  9.440759 )     1.61518462
  WF centre and spread   24  (  2.461109, -0.006110,  9.409913 )     1.59215363
  WF centre and spread   25  (  2.526171, -0.032465,  9.355026 )     1.74462151
  WF centre and spread   26  ( -1.240178,  2.168335,  9.440426 )     1.61560649
  WF centre and spread   27  ( -1.250423,  2.169370,  9.372769 )     1.69207876
  WF centre and spread   28  ( -1.211311,  2.167850,  9.392792 )     1.64668077
  WF centre and spread   29  (  1.705509,  0.938032, -0.057171 )     2.46055281
  WF centre and spread   30  (  1.720135,  0.839618,  0.154300 )     2.58552377
  WF centre and spread   31  (  1.705081,  1.164711,  0.141253 )     2.56373756
  WF centre and spread   32  (  1.713699,  0.927268,  3.181360 )     2.45938341
  WF centre and spread   33  (  1.710133,  0.836928,  2.982844 )     2.56161704
  WF centre and spread   34  (  1.711299,  1.158174,  2.995872 )     2.54610387
  WF centre and spread   35  (  3.411588,  3.893300, -0.057401 )     2.45995549
  WF centre and spread   36  (  3.392318,  3.795092,  0.154705 )     2.58384949
  WF centre and spread   37  (  3.410897,  4.120702,  0.141127 )     2.56542543
  WF centre and spread   38  (  3.390571,  3.894723,  3.182900 )     2.45735426
  WF centre and spread   39  (  3.408751,  3.799832,  2.981891 )     2.56300651
  WF centre and spread   40  (  3.396347,  4.120514,  2.995300 )     2.54675901
  WF centre and spread   41  (  0.000455,  3.896607, -0.062917 )     2.45187016
  WF centre and spread   42  ( -0.000310,  3.798925,  0.147539 )     2.58109117
  WF centre and spread   43  ( -0.000038,  4.120160,  0.136869 )     2.56387193
  WF centre and spread   44  (  0.003261,  3.895726,  3.200241 )     2.45439901
  WF centre and spread   45  ( -0.006857,  3.804291,  3.000800 )     2.56325984
  WF centre and spread   46  (  0.003493,  4.115583,  3.011408 )     2.54692272
  WF centre and spread   47  (  5.114769,  0.945646, -0.057211 )     2.45890862
  WF centre and spread   48  (  5.120472,  0.847506,  0.151693 )     2.58136382
  WF centre and spread   49  (  5.116449,  1.179318,  0.144002 )     2.56727703
  WF centre and spread   50  (  5.124187,  0.950467,  3.182071 )     2.46230578
  WF centre and spread   51  (  5.121031,  0.857279,  2.984897 )     2.56316252
  WF centre and spread   52  (  5.121421,  1.178694,  2.993175 )     2.54185431
  WF centre and spread   53  ( -0.000773, -0.006835,  1.570079 )     1.88028424
  WF centre and spread   54  ( -0.001159,  0.144442,  1.571479 )     2.02692094
  WF centre and spread   55  (  0.001981, -0.135134,  1.571500 )     2.02803933
  WF centre and spread   56  (  1.697278,  2.946755,  1.572269 )     1.88322987
  WF centre and spread   57  (  1.697385,  3.095166,  1.575461 )     2.02693135
  WF centre and spread   58  (  1.694425,  2.814194,  1.573337 )     2.01771847
  WF centre and spread   59  ( -1.700740,  2.954252,  1.571805 )     1.88270214
  WF centre and spread   60  ( -1.704268,  3.109159,  1.573631 )     2.02163288
  WF centre and spread   61  ( -1.704525,  2.828067,  1.575568 )     2.02346518
  WF centre and spread   62  (  3.415067, -0.014083,  1.572309 )     1.88552596
  WF centre and spread   63  (  3.418968,  0.138689,  1.574218 )     2.01578404
  WF centre and spread   64  (  3.418800, -0.141622,  1.574540 )     2.02671345
  Sum of centres and spreads (109.146040,141.796747,280.934643 )   126.99547841
 
    500    -0.286E-04     0.0138531242      126.9954411993      15.82  <-- CONV
        O_D=      0.0228013 O_OD=      7.3296488 O_TOT=    126.9954412 <-- SPRD
 Delta: O_D=  0.1582751E-05 O_OD= -0.3015254E-04 O_TOT= -0.2856978E-04 <-- DLTA
 ------------------------------------------------------------------------------

 Writing checkpoint file crbr3.nbse2.bilayer.down.chk... done

 Final State
  WF centre and spread    1  (  0.000000,  3.938457,  8.027924 )     0.64224394
  WF centre and spread    2  ( -0.000099,  3.934841,  8.026439 )     0.71311763
  WF centre and spread    3  (  0.000098,  3.942108,  8.026439 )     0.71327476
  WF centre and spread    4  ( -0.000727,  3.930634,  8.027524 )     0.69179854
  WF centre and spread    5  (  0.000726,  3.946300,  8.027524 )     0.69177871
  WF centre and spread    6  (  3.411022,  1.968541,  8.004747 )     2.51202369
  WF centre and spread    7  (  3.412414,  1.963775,  8.017411 )     1.60978123
  WF centre and spread    8  (  3.409049,  1.974526,  8.017411 )     1.61001244
  WF centre and spread    9  (  3.409181,  1.975654,  8.025745 )     1.76130010
  WF centre and spread   10  (  3.412402,  1.964173,  8.025737 )     1.76180800
  WF centre and spread   11  (  1.242587,  2.197083,  6.587040 )     1.66369956
  WF centre and spread   12  (  1.254080,  2.194216,  6.647677 )     1.69723089
  WF centre and spread   13  (  1.215828,  2.192672,  6.626631 )     1.64753986
  WF centre and spread   14  (  4.297928, -0.020720,  6.586647 )     1.66308975
  WF centre and spread   15  (  4.335793, -0.016607,  6.609157 )     1.59650854
  WF centre and spread   16  (  4.273026, -0.039987,  6.665833 )     1.74647684
  WF centre and spread   17  ( -2.130763,  3.732126,  6.586582 )     1.66113713
  WF centre and spread   18  ( -2.093122,  3.735135,  6.657304 )     1.72789453
  WF centre and spread   19  ( -2.162469,  3.748874,  6.617592 )     1.61756278
  WF centre and spread   20  (  2.154044,  3.748729,  9.440686 )     1.61347249
  WF centre and spread   21  (  2.110923,  3.751061,  9.363264 )     1.72757165
  WF centre and spread   22  (  2.183997,  3.764730,  9.401901 )     1.61132617
  WF centre and spread   23  (  2.497660, -0.008699,  9.440759 )     1.61518462
  WF centre and spread   24  (  2.461109, -0.006110,  9.409913 )     1.59215363
  WF centre and spread   25  (  2.526171, -0.032465,  9.355026 )     1.74462151
  WF centre and spread   26  ( -1.240178,  2.168335,  9.440426 )     1.61560649
  WF centre and spread   27  ( -1.250423,  2.169370,  9.372769 )     1.69207876
  WF centre and spread   28  ( -1.211311,  2.167850,  9.392792 )     1.64668077
  WF centre and spread   29  (  1.705509,  0.938032, -0.057171 )     2.46055281
  WF centre and spread   30  (  1.720135,  0.839618,  0.154300 )     2.58552377
  WF centre and spread   31  (  1.705081,  1.164711,  0.141253 )     2.56373756
  WF centre and spread   32  (  1.713699,  0.927268,  3.181360 )     2.45938341
  WF centre and spread   33  (  1.710133,  0.836928,  2.982844 )     2.56161704
  WF centre and spread   34  (  1.711299,  1.158174,  2.995872 )     2.54610387
  WF centre and spread   35  (  3.411588,  3.893300, -0.057401 )     2.45995549
  WF centre and spread   36  (  3.392318,  3.795092,  0.154705 )     2.58384949
  WF centre and spread   37  (  3.410897,  4.120702,  0.141127 )     2.56542543
  WF centre and spread   38  (  3.390571,  3.894723,  3.182900 )     2.45735426
  WF centre and spread   39  (  3.408751,  3.799832,  2.981891 )     2.56300651
  WF centre and spread   40  (  3.396347,  4.120514,  2.995300 )     2.54675901
  WF centre and spread   41  (  0.000455,  3.896607, -0.062917 )     2.45187016
  WF centre and spread   42  ( -0.000310,  3.798925,  0.147539 )     2.58109117
  WF centre and spread   43  ( -0.000038,  4.120160,  0.136869 )     2.56387193
  WF centre and spread   44  (  0.003261,  3.895726,  3.200241 )     2.45439901
  WF centre and spread   45  ( -0.006857,  3.804291,  3.000800 )     2.56325984
  WF centre and spread   46  (  0.003493,  4.115583,  3.011408 )     2.54692272
  WF centre and spread   47  (  5.114769,  0.945646, -0.057211 )     2.45890862
  WF centre and spread   48  (  5.120472,  0.847506,  0.151693 )     2.58136382
  WF centre and spread   49  (  5.116449,  1.179318,  0.144002 )     2.56727703
  WF centre and spread   50  (  5.124187,  0.950467,  3.182071 )     2.46230578
  WF centre and spread   51  (  5.121031,  0.857279,  2.984897 )     2.56316252
  WF centre and spread   52  (  5.121421,  1.178694,  2.993175 )     2.54185431
  WF centre and spread   53  ( -0.000773, -0.006835,  1.570079 )     1.88028424
  WF centre and spread   54  ( -0.001159,  0.144442,  1.571479 )     2.02692094
  WF centre and spread   55  (  0.001981, -0.135134,  1.571500 )     2.02803933
  WF centre and spread   56  (  1.697278,  2.946755,  1.572269 )     1.88322987
  WF centre and spread   57  (  1.697385,  3.095166,  1.575461 )     2.02693135
  WF centre and spread   58  (  1.694425,  2.814194,  1.573337 )     2.01771847
  WF centre and spread   59  ( -1.700740,  2.954252,  1.571805 )     1.88270214
  WF centre and spread   60  ( -1.704268,  3.109159,  1.573631 )     2.02163288
  WF centre and spread   61  ( -1.704525,  2.828067,  1.575568 )     2.02346518
  WF centre and spread   62  (  3.415067, -0.014083,  1.572309 )     1.88552596
  WF centre and spread   63  (  3.418968,  0.138689,  1.574218 )     2.01578404
  WF centre and spread   64  (  3.418800, -0.141622,  1.574540 )     2.02671345
  Sum of centres and spreads (109.146040,141.796747,280.934643 )   126.99547841
 
         Spreads (Ang^2)       Omega I      =   119.642991077
        ================       Omega D      =     0.022801277
                               Omega OD     =     7.329648846
    Final Spread (Ang^2)       Omega Total  =   126.995441199
 ------------------------------------------------------------------------------
 Final centres (translated to home cell for writing xyz file)
  WF centre    1  (  0.000000,  3.938457,  8.027924 )
  WF centre    2  ( -0.000099,  3.934841,  8.026439 )
  WF centre    3  (  0.000098,  3.942108,  8.026439 )
  WF centre    4  ( -0.000727,  3.930634,  8.027524 )
  WF centre    5  (  0.000726,  3.946300,  8.027524 )
  WF centre    6  (  3.411022,  1.968541,  8.004747 )
  WF centre    7  (  3.412414,  1.963775,  8.017411 )
  WF centre    8  (  3.409049,  1.974526,  8.017411 )
  WF centre    9  (  3.409181,  1.975654,  8.025745 )
  WF centre   10  (  3.412402,  1.964173,  8.025737 )
  WF centre   11  (  1.242587,  2.197083,  6.587040 )
  WF centre   12  (  1.254080,  2.194216,  6.647677 )
  WF centre   13  (  1.215828,  2.192672,  6.626631 )
  WF centre   14  (  4.297928, -0.020720,  6.586647 )
  WF centre   15  (  4.335793, -0.016607,  6.609157 )
  WF centre   16  (  4.273026, -0.039987,  6.665833 )
  WF centre   17  ( -2.130763,  3.732126,  6.586582 )
  WF centre   18  ( -2.093122,  3.735135,  6.657304 )
  WF centre   19  ( -2.162469,  3.748874,  6.617592 )
  WF centre   20  (  2.154044,  3.748729,  9.440686 )
  WF centre   21  (  2.110923,  3.751061,  9.363264 )
  WF centre   22  (  2.183997,  3.764730,  9.401901 )
  WF centre   23  (  2.497660, -0.008699,  9.440759 )
  WF centre   24  (  2.461109, -0.006110,  9.409913 )
  WF centre   25  (  2.526171, -0.032465,  9.355026 )
  WF centre   26  ( -1.240178,  2.168335,  9.440426 )
  WF centre   27  ( -1.250423,  2.169370,  9.372769 )
  WF centre   28  ( -1.211311,  2.167850,  9.392792 )
  WF centre   29  (  1.705509,  0.938032, -0.057171 )
  WF centre   30  (  1.720135,  0.839618,  0.154300 )
  WF centre   31  (  1.705081,  1.164711,  0.141253 )
  WF centre   32  (  1.713699,  0.927268,  3.181360 )
  WF centre   33  (  1.710133,  0.836928,  2.982844 )
  WF centre   34  (  1.711299,  1.158174,  2.995872 )
  WF centre   35  (  3.411588,  3.893300, -0.057401 )
  WF centre   36  (  3.392318,  3.795092,  0.154705 )
  WF centre   37  (  3.410897,  4.120702,  0.141127 )
  WF centre   38  (  3.390571,  3.894723,  3.182900 )
  WF centre   39  (  3.408751,  3.799832,  2.981891 )
  WF centre   40  (  3.396347,  4.120514,  2.995300 )
  WF centre   41  (  0.000455,  3.896607, -0.062917 )
  WF centre   42  ( -0.000310,  3.798925,  0.147539 )
  WF centre   43  ( -0.000038,  4.120160,  0.136869 )
  WF centre   44  (  0.003261,  3.895726,  3.200241 )
  WF centre   45  ( -0.006857,  3.804291,  3.000800 )
  WF centre   46  (  0.003493,  4.115583,  3.011408 )
  WF centre   47  (  5.114769,  0.945646, -0.057211 )
  WF centre   48  (  5.120472,  0.847506,  0.151693 )
  WF centre   49  (  5.116449,  1.179318,  0.144002 )
  WF centre   50  (  5.124187,  0.950467,  3.182071 )
  WF centre   51  (  5.121031,  0.857279,  2.984897 )
  WF centre   52  (  5.121421,  1.178694,  2.993175 )
  WF centre   53  ( -0.000773, -0.006835,  1.570079 )
  WF centre   54  ( -0.001159,  0.144442,  1.571479 )
  WF centre   55  (  0.001981, -0.135134,  1.571500 )
  WF centre   56  (  1.697278,  2.946755,  1.572269 )
  WF centre   57  (  1.697385,  3.095166,  1.575461 )
  WF centre   58  (  1.694425,  2.814194,  1.573337 )
  WF centre   59  ( -1.700740,  2.954252,  1.571805 )
  WF centre   60  ( -1.704268,  3.109159,  1.573631 )
  WF centre   61  ( -1.704525,  2.828067,  1.575568 )
  WF centre   62  (  3.415067, -0.014083,  1.572309 )
  WF centre   63  (  3.418968,  0.138689,  1.574218 )
  WF centre   64  (  3.418800, -0.141622,  1.574540 )
 ------------------------------------------------------------------------------
 

 Wannier centres written to file crbr3.nbse2.bilayer.down_centres.xyz
  
  Omega Invariant:   1-s^2 =   119.642991076 (Ang^2)
                   -2log s =   122.619858867 (Ang^2)
                    acos^2 =   121.608385767 (Ang^2)
 Time for wannierise            6.833 (sec)

 Writing checkpoint file crbr3.nbse2.bilayer.down.chk... done

 *---------------------------------------------------------------------------*
 |                               PLOTTING                                    |
 *---------------------------------------------------------------------------*
 
   39 lattice points in Wigner-Seitz supercell:

      vector  -3  -3   0   degeneracy:  2
      vector  -3  -2   0   degeneracy:  1
      vector  -3  -1   0   degeneracy:  1
      vector  -3   0   0   degeneracy:  2
      vector  -2  -4   0   degeneracy:  1
      vector  -2  -3   0   degeneracy:  1
      vector  -2  -2   0   degeneracy:  1
      vector  -2  -1   0   degeneracy:  1
      vector  -2   0   0   degeneracy:  1
      vector  -2   1   0   degeneracy:  1
      vector  -1  -3   0   degeneracy:  1
      vector  -1  -2   0   degeneracy:  1
      vector  -1  -1   0   degeneracy:  1
      vector  -1   0   0   degeneracy:  1
      vector  -1   1   0   degeneracy:  1
      vector  -1   2   0   degeneracy:  1
      vector   0  -3   0   degeneracy:  2
      vector   0  -2   0   degeneracy:  1
      vector   0  -1   0   degeneracy:  1
      vector   0   0   0   degeneracy:  1
      vector   0   1   0   degeneracy:  1
      vector   0   2   0   degeneracy:  1
      vector   0   3   0   degeneracy:  2
      vector   1  -2   0   degeneracy:  1
      vector   1  -1   0   degeneracy:  1
      vector   1   0   0   degeneracy:  1
      vector   1   1   0   degeneracy:  1
      vector   1   2   0   degeneracy:  1
      vector   1   3   0   degeneracy:  1
      vector   2  -1   0   degeneracy:  1
      vector   2   0   0   degeneracy:  1
      vector   2   1   0   degeneracy:  1
      vector   2   2   0   degeneracy:  1
      vector   2   3   0   degeneracy:  1
      vector   2   4   0   degeneracy:  1
      vector   3   0   0   degeneracy:  2
      vector   3   1   0   degeneracy:  1
      vector   3   2   0   degeneracy:  1
      vector   3   3   0   degeneracy:  2
  tot =       36.000
  mp_grid product =           36
 
 Calculating interpolated band-structure
 
 Time to calculate interpolated band structure       5.573 (sec)
 
 Time for plotting              6.423 (sec)
 Total Execution Time          31.943 (sec)

 *===========================================================================*
 |                             TIMING INFORMATION                            |
 *===========================================================================*
 |    Tag                                                Ncalls      Time (s)|
 |---------------------------------------------------------------------------|
 |kmesh: get                                        :         1         0.029|
 |overlap: allocate                                 :         1         0.003|
 |overlap: read                                     :         1         8.695|
 |dis: main                                         :         1         9.917|
 |wann: main                                        :         1         6.833|
 |plot: main                                        :         1         6.423|
 *---------------------------------------------------------------------------*
 
 All done: wannier90 exiting
