
     Program PWSCF v.6.8 starts on  5Apr2023 at 19:37:26 

     This program is part of the open-source Quantum ESPRESSO suite
     for quantum simulation of materials; please cite
         "P. Giannozzi et al., J. Phys.:Condens. Matter 21 395502 (2009);
         "P. Giannozzi et al., J. Phys.:Condens. Matter 29 465901 (2017);
         "P. Giannozzi et al., J. Chem. Phys. 152 154105 (2020);
          URL http://www.quantum-espresso.org", 
     in publications or presentations arising from this work. More details at
     http://www.quantum-espresso.org/quote

     Parallel version (MPI & OpenMP), running on      80 processor cores
     Number of MPI processes:                80
     Threads/MPI process:                     1

     MPI processes distributed on     2 nodes
     R & G space division:  proc/nbgrp/npool/nimage =      80
     86583 MiB available memory on the printing compute node when the environment starts
 
     Reading input from 1Fe_initialconf.scf.in

     Current dimensions of program PWSCF are:
     Max number of different atomic species (ntypx) = 10
     Max number of k-points (npk) =  40000
     Max angular momentum in pseudopotentials (lmaxx) =  4
     file Nb.pbe-spn-kjpaw_psl.1.0.0.UPF: wavefunction(s)  4S 4P 4D renormalized
     file Se.pbe-n-kjpaw_psl.1.0.0.UPF: wavefunction(s)  4S renormalized
     Found symmetry operation: I + (  0.2500  0.0000  0.0000)
     This is a supercell, fractional translations are disabled

     Subspace diagonalization in iterative solution of the eigenvalue problem:
     one sub-group per band group will be used
     scalapack distributed-memory algorithm (size of sub-group:  8*  8 procs)

 
     Parallelization info
     --------------------
     sticks:   dense  smooth     PW     G-vecs:    dense   smooth      PW
     Min         350     174     45                81406    28766    3799
     Max         351     175     46                81421    28783    3810
     Sum       28063   13999   3643              6513055  2302489  304271
 
     Using Slab Decomposition
 


     bravais-lattice index     =            4
     lattice parameter (alat)  =      26.0483  a.u.
     unit-cell volume          =   26240.8884 (a.u.)^3
     number of atoms/cell      =           48
     number of atomic types    =            2
     number of electrons       =       400.00
     number of Kohn-Sham states=          240
     kinetic-energy cutoff     =      75.0000  Ry
     charge density cutoff     =     600.0000  Ry
     scf convergence threshold =      1.0E-07
     mixing beta               =       0.7000
     number of iterations used =            8  local-TF  mixing
     Exchange-correlation= SLA  PW   PBX  PBC
                           (   1   4   3   4   0   0   0)

     celldm(1)=  26.048308  celldm(2)=   0.000000  celldm(3)=   1.714389
     celldm(4)=   0.000000  celldm(5)=   0.000000  celldm(6)=   0.000000

     crystal axes: (cart. coord. in units of alat)
               a(1) = (   1.000000   0.000000   0.000000 )  
               a(2) = (  -0.500000   0.866025   0.000000 )  
               a(3) = (   0.000000   0.000000   1.714389 )  

     reciprocal axes: (cart. coord. in units 2 pi/alat)
               b(1) = (  1.000000  0.577350  0.000000 )  
               b(2) = (  0.000000  1.154701  0.000000 )  
               b(3) = (  0.000000  0.000000  0.583298 )  


     PseudoPot. # 1 for Nb read from file:
     /ptmp/jojaibal/YSR_Project/Nb.pbe-spn-kjpaw_psl.1.0.0.UPF
     MD5 check sum: dcedcbb129af9a7271e4748e5febedb1
     Pseudo is Projector augmented-wave + core cor, Zval = 13.0
     Generated using &quot;atomic&quot; code by A. Dal Corso  v.6.2.2
     Shape of augmentation charge: PSQ
     Using radial grid of 1227 points,  6 beta functions with: 
                l(1) =   0
                l(2) =   0
                l(3) =   1
                l(4) =   1
                l(5) =   2
                l(6) =   2
     Q(r) pseudized with 0 coefficients 


     PseudoPot. # 2 for Se read from file:
     /ptmp/jojaibal/YSR_Project/Se.pbe-n-kjpaw_psl.1.0.0.UPF
     MD5 check sum: 12232cb78b362a7b0fca8da9cb95fd5e
     Pseudo is Projector augmented-wave + core cor, Zval =  6.0
     Generated using &quot;atomic&quot; code by A. Dal Corso  v.6.3
     Shape of augmentation charge: PSQ
     Using radial grid of 1211 points,  4 beta functions with: 
                l(1) =   0
                l(2) =   0
                l(3) =   1
                l(4) =   1
     Q(r) pseudized with 0 coefficients 


     atomic species   valence    mass     pseudopotential
        Nb            13.00    92.90638     Nb( 1.00)
        Se             6.00    78.96000     Se( 1.00)

     Starting magnetic structure 
     atomic species   magnetization
        Nb           0.500
        Se           0.000


     Simplified LDA+U calculation (l_max = 2) with parameters (eV):
     atomic species    L          U    alpha       J0     beta
        Nb             2     7.5681   0.0000   0.0000   0.0000



      6 Sym. Ops. (no inversion) found



   Cartesian axes

     site n.     atom                  positions (alat units)
         1           Nb  tau(   1) = (   0.0000000   0.0000000   0.1216723  )
         2           Se  tau(   2) = (   0.1250000   0.0721688   0.0000000  )
         3           Se  tau(   3) = (   0.1250000   0.0721688   0.2433446  )
         4           Nb  tau(   4) = (   0.2500000   0.0000000   0.1216723  )
         5           Se  tau(   5) = (   0.3750000   0.0721688   0.0000000  )
         6           Se  tau(   6) = (   0.3750000   0.0721688   0.2433446  )
         7           Nb  tau(   7) = (   0.5000000   0.0000000   0.1216723  )
         8           Se  tau(   8) = (   0.6250000   0.0721688   0.0000000  )
         9           Se  tau(   9) = (   0.6250000   0.0721688   0.2433446  )
        10           Nb  tau(  10) = (   0.7500000   0.0000000   0.1216723  )
        11           Se  tau(  11) = (   0.8750000   0.0721688   0.0000000  )
        12           Se  tau(  12) = (   0.8750000   0.0721688   0.2433446  )
        13           Nb  tau(  13) = (   0.6250000   0.2165064   0.1216723  )
        14           Se  tau(  14) = (   0.7500000   0.2886751   0.0000000  )
        15           Se  tau(  15) = (   0.7500000   0.2886751   0.2433446  )
        16           Nb  tau(  16) = (   0.5000000   0.4330127   0.1216723  )
        17           Se  tau(  17) = (   0.6250000   0.5051815   0.0000000  )
        18           Se  tau(  18) = (   0.6250000   0.5051815   0.2433446  )
        19           Nb  tau(  19) = (   0.3750000   0.6495191   0.1216723  )
        20           Se  tau(  20) = (   0.5000000   0.7216878   0.0000000  )
        21           Se  tau(  21) = (   0.5000000   0.7216878   0.2433446  )
        22           Nb  tau(  22) = (   0.1250000   0.6495191   0.1216723  )
        23           Se  tau(  23) = (   0.2500000   0.7216878   0.0000000  )
        24           Se  tau(  24) = (   0.2500000   0.7216878   0.2433446  )
        25           Nb  tau(  25) = (  -0.1250000   0.6495191   0.1216723  )
        26           Se  tau(  26) = (   0.0000000   0.7216878   0.0000000  )
        27           Se  tau(  27) = (   0.0000000   0.7216878   0.2433446  )
        28           Nb  tau(  28) = (  -0.3750000   0.6495191   0.1216723  )
        29           Se  tau(  29) = (  -0.2500000   0.7216878   0.0000000  )
        30           Se  tau(  30) = (  -0.2500000   0.7216878   0.2433446  )
        31           Nb  tau(  31) = (   0.3750000   0.2165064   0.1216723  )
        32           Se  tau(  32) = (   0.5000000   0.2886751   0.0000000  )
        33           Se  tau(  33) = (   0.5000000   0.2886751   0.2433446  )
        34           Nb  tau(  34) = (   0.2500000   0.4330127   0.1216723  )
        35           Se  tau(  35) = (   0.3750000   0.5051815   0.0000000  )
        36           Se  tau(  36) = (   0.3750000   0.5051815   0.2433446  )
        37           Nb  tau(  37) = (   0.0000000   0.4330127   0.1216723  )
        38           Se  tau(  38) = (   0.1250000   0.5051815   0.0000000  )
        39           Se  tau(  39) = (   0.1250000   0.5051815   0.2433446  )
        40           Nb  tau(  40) = (   0.1250000   0.2165064   0.1216723  )
        41           Se  tau(  41) = (   0.2500000   0.2886751   0.0000000  )
        42           Se  tau(  42) = (   0.2500000   0.2886751   0.2433446  )
        43           Nb  tau(  43) = (  -0.1250000   0.2165064   0.1216723  )
        44           Se  tau(  44) = (   0.0000000   0.2886751   0.0000000  )
        45           Se  tau(  45) = (   0.0000000   0.2886751   0.2433446  )
        46           Nb  tau(  46) = (  -0.2500000   0.4330127   0.1216723  )
        47           Se  tau(  47) = (  -0.1250000   0.5051815   0.0000000  )
        48           Se  tau(  48) = (  -0.1250000   0.5051815   0.2433446  )

     number of k points=     7  Methfessel-Paxton smearing, width (Ry)=  0.0200
                       cart. coord. in units 2pi/alat
        k(    1) = (   0.0000000   0.0000000   0.0000000), wk =   0.0277778
        k(    2) = (   0.0000000   0.1924501   0.0000000), wk =   0.1666667
        k(    3) = (   0.0000000   0.3849002   0.0000000), wk =   0.1666667
        k(    4) = (   0.0000000  -0.5773503   0.0000000), wk =   0.0833333
        k(    5) = (   0.1666667   0.2886751   0.0000000), wk =   0.1666667
        k(    6) = (   0.1666667   0.4811252   0.0000000), wk =   0.3333333
        k(    7) = (   0.3333333   0.5773503   0.0000000), wk =   0.0555556

     Dense  grid:  6513055 G-vectors     FFT dimensions: ( 216, 216, 360)

     Smooth grid:  2302489 G-vectors     FFT dimensions: ( 144, 144, 250)

     Estimated max dynamical RAM per process >     655.02 MB

     Estimated total dynamical RAM >      51.17 GB
     Generating pointlists ...
     new r_m :   0.0779 (alat units)  2.0284 (a.u.) for type    1
     new r_m :   0.0779 (alat units)  2.0284 (a.u.) for type    2

     Initial potential from superposition of free atoms

     starting charge  399.97664, renormalised to  400.00000

     negative rho (up, down):  1.816E-03 5.733E-04
     Number of +U iterations with fixed ns =  0
     Starting occupations:
 --- enter write_ns ---
 LDA+U parameters:
U( 1)     =  7.56810000
atom    1   Tr[ns(na)] (up, down, total) =   3.00000  0.00000  3.00000
   spin  1
    eigenvalues: 
  0.600  0.600  0.600  0.600  0.600
    eigenvectors:
  1.000  0.000  0.000  0.000  0.000
  0.000  1.000  0.000  0.000  0.000
  0.000  0.000  1.000  0.000  0.000
  0.000  0.000  0.000  1.000  0.000
  0.000  0.000  0.000  0.000  1.000
    occupations:
  0.600  0.000  0.000  0.000  0.000
  0.000  0.600  0.000  0.000  0.000
  0.000  0.000  0.600  0.000  0.000
  0.000  0.000  0.000  0.600  0.000
  0.000  0.000  0.000  0.000  0.600
   spin  2
    eigenvalues: 
  0.000  0.000  0.000  0.000  0.000
    eigenvectors:
  1.000  0.000  0.000  0.000  0.000
  0.000  1.000  0.000  0.000  0.000
  0.000  0.000  1.000  0.000  0.000
  0.000  0.000  0.000  1.000  0.000
  0.000  0.000  0.000  0.000  1.000
    occupations:
  0.000  0.000  0.000  0.000  0.000
  0.000  0.000  0.000  0.000  0.000
  0.000  0.000  0.000  0.000  0.000
  0.000  0.000  0.000  0.000  0.000
  0.000  0.000  0.000  0.000  0.000
atomic mag. moment =   3.00000
atom    4   Tr[ns(na)] (up, down, total) =   3.00000  0.00000  3.00000
   spin  1
    eigenvalues: 
  0.600  0.600  0.600  0.600  0.600
    eigenvectors:
  1.000  0.000  0.000  0.000  0.000
  0.000  1.000  0.000  0.000  0.000
  0.000  0.000  1.000  0.000  0.000
  0.000  0.000  0.000  1.000  0.000
  0.000  0.000  0.000  0.000  1.000
    occupations:
  0.600  0.000  0.000  0.000  0.000
  0.000  0.600  0.000  0.000  0.000
  0.000  0.000  0.600  0.000  0.000
  0.000  0.000  0.000  0.600  0.000
  0.000  0.000  0.000  0.000  0.600
   spin  2
    eigenvalues: 
  0.000  0.000  0.000  0.000  0.000
    eigenvectors:
  1.000  0.000  0.000  0.000  0.000
  0.000  1.000  0.000  0.000  0.000
  0.000  0.000  1.000  0.000  0.000
  0.000  0.000  0.000  1.000  0.000
  0.000  0.000  0.000  0.000  1.000
    occupations:
  0.000  0.000  0.000  0.000  0.000
  0.000  0.000  0.000  0.000  0.000
  0.000  0.000  0.000  0.000  0.000
  0.000  0.000  0.000  0.000  0.000
  0.000  0.000  0.000  0.000  0.000
atomic mag. moment =   3.00000
atom    7   Tr[ns(na)] (up, down, total) =   3.00000  0.00000  3.00000
   spin  1
    eigenvalues: 
  0.600  0.600  0.600  0.600  0.600
    eigenvectors:
  1.000  0.000  0.000  0.000  0.000
  0.000  1.000  0.000  0.000  0.000
  0.000  0.000  1.000  0.000  0.000
  0.000  0.000  0.000  1.000  0.000
  0.000  0.000  0.000  0.000  1.000
    occupations:
  0.600  0.000  0.000  0.000  0.000
  0.000  0.600  0.000  0.000  0.000
  0.000  0.000  0.600  0.000  0.000
  0.000  0.000  0.000  0.600  0.000
  0.000  0.000  0.000  0.000  0.600
   spin  2
    eigenvalues: 
  0.000  0.000  0.000  0.000  0.000
    eigenvectors:
  1.000  0.000  0.000  0.000  0.000
  0.000  1.000  0.000  0.000  0.000
  0.000  0.000  1.000  0.000  0.000
  0.000  0.000  0.000  1.000  0.000
  0.000  0.000  0.000  0.000  1.000
    occupations:
  0.000  0.000  0.000  0.000  0.000
  0.000  0.000  0.000  0.000  0.000
  0.000  0.000  0.000  0.000  0.000
  0.000  0.000  0.000  0.000  0.000
  0.000  0.000  0.000  0.000  0.000
atomic mag. moment =   3.00000
atom   10   Tr[ns(na)] (up, down, total) =   3.00000  0.00000  3.00000
   spin  1
    eigenvalues: 
  0.600  0.600  0.600  0.600  0.600
    eigenvectors:
  1.000  0.000  0.000  0.000  0.000
  0.000  1.000  0.000  0.000  0.000
  0.000  0.000  1.000  0.000  0.000
  0.000  0.000  0.000  1.000  0.000
  0.000  0.000  0.000  0.000  1.000
    occupations:
  0.600  0.000  0.000  0.000  0.000
  0.000  0.600  0.000  0.000  0.000
  0.000  0.000  0.600  0.000  0.000
  0.000  0.000  0.000  0.600  0.000
  0.000  0.000  0.000  0.000  0.600
   spin  2
    eigenvalues: 
  0.000  0.000  0.000  0.000  0.000
    eigenvectors:
  1.000  0.000  0.000  0.000  0.000
  0.000  1.000  0.000  0.000  0.000
  0.000  0.000  1.000  0.000  0.000
  0.000  0.000  0.000  1.000  0.000
  0.000  0.000  0.000  0.000  1.000
    occupations:
  0.000  0.000  0.000  0.000  0.000
  0.000  0.000  0.000  0.000  0.000
  0.000  0.000  0.000  0.000  0.000
  0.000  0.000  0.000  0.000  0.000
  0.000  0.000  0.000  0.000  0.000
atomic mag. moment =   3.00000
atom   13   Tr[ns(na)] (up, down, total) =   3.00000  0.00000  3.00000
   spin  1
    eigenvalues: 
  0.600  0.600  0.600  0.600  0.600
    eigenvectors:
  1.000  0.000  0.000  0.000  0.000
  0.000  1.000  0.000  0.000  0.000
  0.000  0.000  1.000  0.000  0.000
  0.000  0.000  0.000  1.000  0.000
  0.000  0.000  0.000  0.000  1.000
    occupations:
  0.600  0.000  0.000  0.000  0.000
  0.000  0.600  0.000  0.000  0.000
  0.000  0.000  0.600  0.000  0.000
  0.000  0.000  0.000  0.600  0.000
  0.000  0.000  0.000  0.000  0.600
   spin  2
    eigenvalues: 
  0.000  0.000  0.000  0.000  0.000
    eigenvectors:
  1.000  0.000  0.000  0.000  0.000
  0.000  1.000  0.000  0.000  0.000
  0.000  0.000  1.000  0.000  0.000
  0.000  0.000  0.000  1.000  0.000
  0.000  0.000  0.000  0.000  1.000
    occupations:
  0.000  0.000  0.000  0.000  0.000
  0.000  0.000  0.000  0.000  0.000
  0.000  0.000  0.000  0.000  0.000
  0.000  0.000  0.000  0.000  0.000
  0.000  0.000  0.000  0.000  0.000
atomic mag. moment =   3.00000
atom   16   Tr[ns(na)] (up, down, total) =   3.00000  0.00000  3.00000
   spin  1
    eigenvalues: 
  0.600  0.600  0.600  0.600  0.600
    eigenvectors:
  1.000  0.000  0.000  0.000  0.000
  0.000  1.000  0.000  0.000  0.000
  0.000  0.000  1.000  0.000  0.000
  0.000  0.000  0.000  1.000  0.000
  0.000  0.000  0.000  0.000  1.000
    occupations:
  0.600  0.000  0.000  0.000  0.000
  0.000  0.600  0.000  0.000  0.000
  0.000  0.000  0.600  0.000  0.000
  0.000  0.000  0.000  0.600  0.000
  0.000  0.000  0.000  0.000  0.600
   spin  2
    eigenvalues: 
  0.000  0.000  0.000  0.000  0.000
    eigenvectors:
  1.000  0.000  0.000  0.000  0.000
  0.000  1.000  0.000  0.000  0.000
  0.000  0.000  1.000  0.000  0.000
  0.000  0.000  0.000  1.000  0.000
  0.000  0.000  0.000  0.000  1.000
    occupations:
  0.000  0.000  0.000  0.000  0.000
  0.000  0.000  0.000  0.000  0.000
  0.000  0.000  0.000  0.000  0.000
  0.000  0.000  0.000  0.000  0.000
  0.000  0.000  0.000  0.000  0.000
atomic mag. moment =   3.00000
atom   19   Tr[ns(na)] (up, down, total) =   3.00000  0.00000  3.00000
   spin  1
    eigenvalues: 
  0.600  0.600  0.600  0.600  0.600
    eigenvectors:
  1.000  0.000  0.000  0.000  0.000
  0.000  1.000  0.000  0.000  0.000
  0.000  0.000  1.000  0.000  0.000
  0.000  0.000  0.000  1.000  0.000
  0.000  0.000  0.000  0.000  1.000
    occupations:
  0.600  0.000  0.000  0.000  0.000
  0.000  0.600  0.000  0.000  0.000
  0.000  0.000  0.600  0.000  0.000
  0.000  0.000  0.000  0.600  0.000
  0.000  0.000  0.000  0.000  0.600
   spin  2
    eigenvalues: 
  0.000  0.000  0.000  0.000  0.000
    eigenvectors:
  1.000  0.000  0.000  0.000  0.000
  0.000  1.000  0.000  0.000  0.000
  0.000  0.000  1.000  0.000  0.000
  0.000  0.000  0.000  1.000  0.000
  0.000  0.000  0.000  0.000  1.000
    occupations:
  0.000  0.000  0.000  0.000  0.000
  0.000  0.000  0.000  0.000  0.000
  0.000  0.000  0.000  0.000  0.000
  0.000  0.000  0.000  0.000  0.000
  0.000  0.000  0.000  0.000  0.000
atomic mag. moment =   3.00000
atom   22   Tr[ns(na)] (up, down, total) =   3.00000  0.00000  3.00000
   spin  1
    eigenvalues: 
  0.600  0.600  0.600  0.600  0.600
    eigenvectors:
  1.000  0.000  0.000  0.000  0.000
  0.000  1.000  0.000  0.000  0.000
  0.000  0.000  1.000  0.000  0.000
  0.000  0.000  0.000  1.000  0.000
  0.000  0.000  0.000  0.000  1.000
    occupations:
  0.600  0.000  0.000  0.000  0.000
  0.000  0.600  0.000  0.000  0.000
  0.000  0.000  0.600  0.000  0.000
  0.000  0.000  0.000  0.600  0.000
  0.000  0.000  0.000  0.000  0.600
   spin  2
    eigenvalues: 
  0.000  0.000  0.000  0.000  0.000
    eigenvectors:
  1.000  0.000  0.000  0.000  0.000
  0.000  1.000  0.000  0.000  0.000
  0.000  0.000  1.000  0.000  0.000
  0.000  0.000  0.000  1.000  0.000
  0.000  0.000  0.000  0.000  1.000
    occupations:
  0.000  0.000  0.000  0.000  0.000
  0.000  0.000  0.000  0.000  0.000
  0.000  0.000  0.000  0.000  0.000
  0.000  0.000  0.000  0.000  0.000
  0.000  0.000  0.000  0.000  0.000
atomic mag. moment =   3.00000
atom   25   Tr[ns(na)] (up, down, total) =   3.00000  0.00000  3.00000
   spin  1
    eigenvalues: 
  0.600  0.600  0.600  0.600  0.600
    eigenvectors:
  1.000  0.000  0.000  0.000  0.000
  0.000  1.000  0.000  0.000  0.000
  0.000  0.000  1.000  0.000  0.000
  0.000  0.000  0.000  1.000  0.000
  0.000  0.000  0.000  0.000  1.000
    occupations:
  0.600  0.000  0.000  0.000  0.000
  0.000  0.600  0.000  0.000  0.000
  0.000  0.000  0.600  0.000  0.000
  0.000  0.000  0.000  0.600  0.000
  0.000  0.000  0.000  0.000  0.600
   spin  2
    eigenvalues: 
  0.000  0.000  0.000  0.000  0.000
    eigenvectors:
  1.000  0.000  0.000  0.000  0.000
  0.000  1.000  0.000  0.000  0.000
  0.000  0.000  1.000  0.000  0.000
  0.000  0.000  0.000  1.000  0.000
  0.000  0.000  0.000  0.000  1.000
    occupations:
  0.000  0.000  0.000  0.000  0.000
  0.000  0.000  0.000  0.000  0.000
  0.000  0.000  0.000  0.000  0.000
  0.000  0.000  0.000  0.000  0.000
  0.000  0.000  0.000  0.000  0.000
atomic mag. moment =   3.00000
atom   28   Tr[ns(na)] (up, down, total) =   3.00000  0.00000  3.00000
   spin  1
    eigenvalues: 
  0.600  0.600  0.600  0.600  0.600
    eigenvectors:
  1.000  0.000  0.000  0.000  0.000
  0.000  1.000  0.000  0.000  0.000
  0.000  0.000  1.000  0.000  0.000
  0.000  0.000  0.000  1.000  0.000
  0.000  0.000  0.000  0.000  1.000
    occupations:
  0.600  0.000  0.000  0.000  0.000
  0.000  0.600  0.000  0.000  0.000
  0.000  0.000  0.600  0.000  0.000
  0.000  0.000  0.000  0.600  0.000
  0.000  0.000  0.000  0.000  0.600
   spin  2
    eigenvalues: 
  0.000  0.000  0.000  0.000  0.000
    eigenvectors:
  1.000  0.000  0.000  0.000  0.000
  0.000  1.000  0.000  0.000  0.000
  0.000  0.000  1.000  0.000  0.000
  0.000  0.000  0.000  1.000  0.000
  0.000  0.000  0.000  0.000  1.000
    occupations:
  0.000  0.000  0.000  0.000  0.000
  0.000  0.000  0.000  0.000  0.000
  0.000  0.000  0.000  0.000  0.000
  0.000  0.000  0.000  0.000  0.000
  0.000  0.000  0.000  0.000  0.000
atomic mag. moment =   3.00000
atom   31   Tr[ns(na)] (up, down, total) =   3.00000  0.00000  3.00000
   spin  1
    eigenvalues: 
  0.600  0.600  0.600  0.600  0.600
    eigenvectors:
  1.000  0.000  0.000  0.000  0.000
  0.000  1.000  0.000  0.000  0.000
  0.000  0.000  1.000  0.000  0.000
  0.000  0.000  0.000  1.000  0.000
  0.000  0.000  0.000  0.000  1.000
    occupations:
  0.600  0.000  0.000  0.000  0.000
  0.000  0.600  0.000  0.000  0.000
  0.000  0.000  0.600  0.000  0.000
  0.000  0.000  0.000  0.600  0.000
  0.000  0.000  0.000  0.000  0.600
   spin  2
    eigenvalues: 
  0.000  0.000  0.000  0.000  0.000
    eigenvectors:
  1.000  0.000  0.000  0.000  0.000
  0.000  1.000  0.000  0.000  0.000
  0.000  0.000  1.000  0.000  0.000
  0.000  0.000  0.000  1.000  0.000
  0.000  0.000  0.000  0.000  1.000
    occupations:
  0.000  0.000  0.000  0.000  0.000
  0.000  0.000  0.000  0.000  0.000
  0.000  0.000  0.000  0.000  0.000
  0.000  0.000  0.000  0.000  0.000
  0.000  0.000  0.000  0.000  0.000
atomic mag. moment =   3.00000
atom   34   Tr[ns(na)] (up, down, total) =   3.00000  0.00000  3.00000
   spin  1
    eigenvalues: 
  0.600  0.600  0.600  0.600  0.600
    eigenvectors:
  1.000  0.000  0.000  0.000  0.000
  0.000  1.000  0.000  0.000  0.000
  0.000  0.000  1.000  0.000  0.000
  0.000  0.000  0.000  1.000  0.000
  0.000  0.000  0.000  0.000  1.000
    occupations:
  0.600  0.000  0.000  0.000  0.000
  0.000  0.600  0.000  0.000  0.000
  0.000  0.000  0.600  0.000  0.000
  0.000  0.000  0.000  0.600  0.000
  0.000  0.000  0.000  0.000  0.600
   spin  2
    eigenvalues: 
  0.000  0.000  0.000  0.000  0.000
    eigenvectors:
  1.000  0.000  0.000  0.000  0.000
  0.000  1.000  0.000  0.000  0.000
  0.000  0.000  1.000  0.000  0.000
  0.000  0.000  0.000  1.000  0.000
  0.000  0.000  0.000  0.000  1.000
    occupations:
  0.000  0.000  0.000  0.000  0.000
  0.000  0.000  0.000  0.000  0.000
  0.000  0.000  0.000  0.000  0.000
  0.000  0.000  0.000  0.000  0.000
  0.000  0.000  0.000  0.000  0.000
atomic mag. moment =   3.00000
atom   37   Tr[ns(na)] (up, down, total) =   3.00000  0.00000  3.00000
   spin  1
    eigenvalues: 
  0.600  0.600  0.600  0.600  0.600
    eigenvectors:
  1.000  0.000  0.000  0.000  0.000
  0.000  1.000  0.000  0.000  0.000
  0.000  0.000  1.000  0.000  0.000
  0.000  0.000  0.000  1.000  0.000
  0.000  0.000  0.000  0.000  1.000
    occupations:
  0.600  0.000  0.000  0.000  0.000
  0.000  0.600  0.000  0.000  0.000
  0.000  0.000  0.600  0.000  0.000
  0.000  0.000  0.000  0.600  0.000
  0.000  0.000  0.000  0.000  0.600
   spin  2
    eigenvalues: 
  0.000  0.000  0.000  0.000  0.000
    eigenvectors:
  1.000  0.000  0.000  0.000  0.000
  0.000  1.000  0.000  0.000  0.000
  0.000  0.000  1.000  0.000  0.000
  0.000  0.000  0.000  1.000  0.000
  0.000  0.000  0.000  0.000  1.000
    occupations:
  0.000  0.000  0.000  0.000  0.000
  0.000  0.000  0.000  0.000  0.000
  0.000  0.000  0.000  0.000  0.000
  0.000  0.000  0.000  0.000  0.000
  0.000  0.000  0.000  0.000  0.000
atomic mag. moment =   3.00000
atom   40   Tr[ns(na)] (up, down, total) =   3.00000  0.00000  3.00000
   spin  1
    eigenvalues: 
  0.600  0.600  0.600  0.600  0.600
    eigenvectors:
  1.000  0.000  0.000  0.000  0.000
  0.000  1.000  0.000  0.000  0.000
  0.000  0.000  1.000  0.000  0.000
  0.000  0.000  0.000  1.000  0.000
  0.000  0.000  0.000  0.000  1.000
    occupations:
  0.600  0.000  0.000  0.000  0.000
  0.000  0.600  0.000  0.000  0.000
  0.000  0.000  0.600  0.000  0.000
  0.000  0.000  0.000  0.600  0.000
  0.000  0.000  0.000  0.000  0.600
   spin  2
    eigenvalues: 
  0.000  0.000  0.000  0.000  0.000
    eigenvectors:
  1.000  0.000  0.000  0.000  0.000
  0.000  1.000  0.000  0.000  0.000
  0.000  0.000  1.000  0.000  0.000
  0.000  0.000  0.000  1.000  0.000
  0.000  0.000  0.000  0.000  1.000
    occupations:
  0.000  0.000  0.000  0.000  0.000
  0.000  0.000  0.000  0.000  0.000
  0.000  0.000  0.000  0.000  0.000
  0.000  0.000  0.000  0.000  0.000
  0.000  0.000  0.000  0.000  0.000
atomic mag. moment =   3.00000
atom   43   Tr[ns(na)] (up, down, total) =   3.00000  0.00000  3.00000
   spin  1
    eigenvalues: 
  0.600  0.600  0.600  0.600  0.600
    eigenvectors:
  1.000  0.000  0.000  0.000  0.000
  0.000  1.000  0.000  0.000  0.000
  0.000  0.000  1.000  0.000  0.000
  0.000  0.000  0.000  1.000  0.000
  0.000  0.000  0.000  0.000  1.000
    occupations:
  0.600  0.000  0.000  0.000  0.000
  0.000  0.600  0.000  0.000  0.000
  0.000  0.000  0.600  0.000  0.000
  0.000  0.000  0.000  0.600  0.000
  0.000  0.000  0.000  0.000  0.600
   spin  2
    eigenvalues: 
  0.000  0.000  0.000  0.000  0.000
    eigenvectors:
  1.000  0.000  0.000  0.000  0.000
  0.000  1.000  0.000  0.000  0.000
  0.000  0.000  1.000  0.000  0.000
  0.000  0.000  0.000  1.000  0.000
  0.000  0.000  0.000  0.000  1.000
    occupations:
  0.000  0.000  0.000  0.000  0.000
  0.000  0.000  0.000  0.000  0.000
  0.000  0.000  0.000  0.000  0.000
  0.000  0.000  0.000  0.000  0.000
  0.000  0.000  0.000  0.000  0.000
atomic mag. moment =   3.00000
atom   46   Tr[ns(na)] (up, down, total) =   3.00000  0.00000  3.00000
   spin  1
    eigenvalues: 
  0.600  0.600  0.600  0.600  0.600
    eigenvectors:
  1.000  0.000  0.000  0.000  0.000
  0.000  1.000  0.000  0.000  0.000
  0.000  0.000  1.000  0.000  0.000
  0.000  0.000  0.000  1.000  0.000
  0.000  0.000  0.000  0.000  1.000
    occupations:
  0.600  0.000  0.000  0.000  0.000
  0.000  0.600  0.000  0.000  0.000
  0.000  0.000  0.600  0.000  0.000
  0.000  0.000  0.000  0.600  0.000
  0.000  0.000  0.000  0.000  0.600
   spin  2
    eigenvalues: 
  0.000  0.000  0.000  0.000  0.000
    eigenvectors:
  1.000  0.000  0.000  0.000  0.000
  0.000  1.000  0.000  0.000  0.000
  0.000  0.000  1.000  0.000  0.000
  0.000  0.000  0.000  1.000  0.000
  0.000  0.000  0.000  0.000  1.000
    occupations:
  0.000  0.000  0.000  0.000  0.000
  0.000  0.000  0.000  0.000  0.000
  0.000  0.000  0.000  0.000  0.000
  0.000  0.000  0.000  0.000  0.000
  0.000  0.000  0.000  0.000  0.000
atomic mag. moment =   3.00000
N of occupied +U levels =   48.000000
 --- exit write_ns ---
 Atomic wfc used for LDA+U Projector are NOT orthogonalized
     Starting wfcs are  336 randomized atomic wfcs
     Checking if some PAW data can be deallocated... 

     total cpu time spent up to now is       53.8 secs

     Self-consistent Calculation

     iteration #  1     ecut=    75.00 Ry     beta= 0.70
     Davidson diagonalization with overlap
     ethr =  1.00E-02,  avg # of iterations =  3.0
 --- enter write_ns ---
 LDA+U parameters:
U( 1)     =  7.56810000
atom    1   Tr[ns(na)] (up, down, total) =   3.79062  1.06565  4.85627
   spin  1
    eigenvalues: 
  0.744  0.744  0.750  0.750  0.802
    eigenvectors:
  0.000  0.000  0.000  0.000  1.000
  0.089  0.911  0.000  0.000  0.000
  0.911  0.089  0.000  0.000  0.000
  0.000  0.000  0.184  0.816  0.000
  0.000  0.000  0.816  0.184  0.000
    occupations:
  0.802 -0.000 -0.000 -0.000 -0.000
 -0.000  0.744 -0.000  0.000  0.000
 -0.000 -0.000  0.744  0.000 -0.000
 -0.000  0.000  0.000  0.750  0.000
 -0.000  0.000 -0.000  0.000  0.750
   spin  2
    eigenvalues: 
  0.121  0.171  0.171  0.301  0.301
    eigenvectors:
  1.000  0.000  0.000  0.000  0.000
  0.000  0.000  0.000  0.088  0.912
  0.000  0.000  0.000  0.912  0.088
  0.000  0.187  0.813  0.000  0.000
  0.000  0.813  0.187  0.000  0.000
    occupations:
  0.121 -0.000 -0.000 -0.000 -0.000
 -0.000  0.301 -0.000  0.000  0.000
 -0.000 -0.000  0.301  0.000  0.000
 -0.000  0.000  0.000  0.171  0.000
 -0.000  0.000  0.000  0.000  0.171
atomic mag. moment =   2.72497
atom    4   Tr[ns(na)] (up, down, total) =   3.78842  1.06535  4.85377
   spin  1
    eigenvalues: 
  0.744  0.744  0.750  0.750  0.801
    eigenvectors:
  0.000  0.000  0.000  0.000  1.000
  0.985  0.015  0.000  0.000  0.000
  0.015  0.985  0.000  0.000  0.000
  0.000  0.000  0.135  0.865  0.000
  0.000  0.000  0.865  0.135  0.000
    occupations:
  0.801 -0.000  0.000  0.000  0.000
 -0.000  0.744  0.000 -0.000  0.000
  0.000  0.000  0.744 -0.000  0.000
  0.000 -0.000 -0.000  0.750  0.000
  0.000  0.000  0.000  0.000  0.750
   spin  2
    eigenvalues: 
  0.121  0.171  0.171  0.301  0.301
    eigenvectors:
  1.000  0.000  0.000  0.000  0.000
  0.000  0.000  0.000  0.523  0.477
  0.000  0.000  0.000  0.477  0.523
  0.000  0.984  0.016  0.000  0.000
  0.000  0.016  0.984  0.000  0.000
    occupations:
  0.121  0.000 -0.000  0.000  0.000
  0.000  0.301  0.000 -0.000 -0.000
 -0.000  0.000  0.301  0.000 -0.000
  0.000 -0.000  0.000  0.171  0.000
  0.000 -0.000 -0.000  0.000  0.171
atomic mag. moment =   2.72307
atom    7   Tr[ns(na)] (up, down, total) =   3.79081  1.06572  4.85653
   spin  1
    eigenvalues: 
  0.744  0.744  0.750  0.750  0.802
    eigenvectors:
  0.000  0.000  0.000  0.000  1.000
  1.000  0.000  0.000  0.000  0.000
  0.000  1.000  0.000  0.000  0.000
  0.000  0.000  1.000  0.000  0.000
  0.000  0.000  0.000  1.000  0.000
    occupations:
  0.802 -0.000 -0.000 -0.000 -0.000
 -0.000  0.744 -0.000  0.000  0.000
 -0.000 -0.000  0.744  0.000 -0.000
 -0.000  0.000  0.000  0.750  0.000
 -0.000  0.000 -0.000  0.000  0.750
   spin  2
    eigenvalues: 
  0.121  0.171  0.171  0.301  0.301
    eigenvectors:
  1.000  0.000  0.000  0.000  0.000
  0.000  0.000  0.000  1.000  0.000
  0.000  0.000  0.000  0.000  1.000
  0.000  0.000  1.000  0.000  0.000
  0.000  1.000  0.000  0.000  0.000
    occupations:
  0.121 -0.000 -0.000  0.000 -0.000
 -0.000  0.301 -0.000  0.000 -0.000
 -0.000 -0.000  0.301  0.000  0.000
  0.000  0.000  0.000  0.171  0.000
 -0.000 -0.000  0.000  0.000  0.171
atomic mag. moment =   2.72509
atom   10   Tr[ns(na)] (up, down, total) =   3.78842  1.06535  4.85377
   spin  1
    eigenvalues: 
  0.744  0.744  0.750  0.750  0.801
    eigenvectors:
  0.000  0.000  0.000  0.000  1.000
  0.985  0.015  0.000  0.000  0.000
  0.015  0.985  0.000  0.000  0.000
  0.000  0.000  0.135  0.865  0.000
  0.000  0.000  0.865  0.135  0.000
    occupations:
  0.801  0.000  0.000  0.000 -0.000
  0.000  0.744 -0.000  0.000  0.000
  0.000 -0.000  0.744 -0.000 -0.000
  0.000  0.000 -0.000  0.750 -0.000
 -0.000  0.000 -0.000 -0.000  0.750
   spin  2
    eigenvalues: 
  0.121  0.171  0.171  0.301  0.301
    eigenvectors:
  1.000  0.000  0.000  0.000  0.000
  0.000  0.000  0.000  0.523  0.477
  0.000  0.000  0.000  0.477  0.523
  0.000  0.984  0.016  0.000  0.000
  0.000  0.016  0.984  0.000  0.000
    occupations:
  0.121 -0.000 -0.000  0.000 -0.000
 -0.000  0.301 -0.000  0.000 -0.000
 -0.000 -0.000  0.301  0.000  0.000
  0.000  0.000  0.000  0.171 -0.000
 -0.000 -0.000  0.000 -0.000  0.171
atomic mag. moment =   2.72307
atom   13   Tr[ns(na)] (up, down, total) =   3.78946  1.06555  4.85501
   spin  1
    eigenvalues: 
  0.744  0.744  0.750  0.750  0.801
    eigenvectors:
  0.000  0.000  0.000  0.000  1.000
  0.750  0.250  0.000  0.000  0.000
  0.250  0.750  0.000  0.000  0.000
  0.000  0.000  0.750  0.250  0.000
  0.000  0.000  0.250  0.750  0.000
    occupations:
  0.801  0.000 -0.000 -0.000  0.000
  0.000  0.744  0.000  0.000 -0.000
 -0.000  0.000  0.744 -0.000  0.000
 -0.000  0.000 -0.000  0.750 -0.000
  0.000 -0.000  0.000 -0.000  0.750
   spin  2
    eigenvalues: 
  0.121  0.171  0.171  0.301  0.301
    eigenvectors:
  1.000  0.000  0.000  0.000  0.000
  0.000  0.000  0.000  0.750  0.250
  0.000  0.000  0.000  0.250  0.750
  0.000  0.250  0.750  0.000  0.000
  0.000  0.750  0.250  0.000  0.000
    occupations:
  0.121 -0.000  0.000  0.000 -0.000
 -0.000  0.301  0.000  0.000 -0.000
  0.000  0.000  0.301 -0.000  0.000
  0.000  0.000 -0.000  0.171  0.000
 -0.000 -0.000  0.000  0.000  0.171
atomic mag. moment =   2.72391
atom   16   Tr[ns(na)] (up, down, total) =   3.78946  1.06555  4.85501
   spin  1
    eigenvalues: 
  0.744  0.744  0.750  0.750  0.801
    eigenvectors:
  0.000  0.000  0.000  0.000  1.000
  0.000  1.000  0.000  0.000  0.000
  1.000  0.000  0.000  0.000  0.000
  0.000  0.000  0.000  1.000  0.000
  0.000  0.000  1.000  0.000  0.000
    occupations:
  0.801 -0.000  0.000  0.000 -0.000
 -0.000  0.744 -0.000  0.000 -0.000
  0.000 -0.000  0.744 -0.000 -0.000
  0.000  0.000 -0.000  0.750  0.000
 -0.000 -0.000 -0.000  0.000  0.750
   spin  2
    eigenvalues: 
  0.121  0.171  0.171  0.301  0.301
    eigenvectors:
  1.000  0.000  0.000  0.000  0.000
  0.000  0.000  0.000  0.000  1.000
  0.000  0.000  0.000  1.000  0.000
  0.000  1.000  0.000  0.000  0.000
  0.000  0.000  1.000  0.000  0.000
    occupations:
  0.121 -0.000 -0.000 -0.000 -0.000
 -0.000  0.301 -0.000  0.000 -0.000
 -0.000 -0.000  0.301 -0.000  0.000
 -0.000  0.000 -0.000  0.171  0.000
 -0.000 -0.000  0.000  0.000  0.171
atomic mag. moment =   2.72391
atom   19   Tr[ns(na)] (up, down, total) =   3.78842  1.06535  4.85377
   spin  1
    eigenvalues: 
  0.744  0.744  0.750  0.750  0.801
    eigenvectors:
  0.000  0.000  0.000  0.000  1.000
  0.362  0.638  0.000  0.000  0.000
  0.638  0.362  0.000  0.000  0.000
  0.000  0.000  0.387  0.613  0.000
  0.000  0.000  0.613  0.387  0.000
    occupations:
  0.801  0.000  0.000 -0.000 -0.000
  0.000  0.744 -0.000  0.000  0.000
  0.000 -0.000  0.744 -0.000  0.000
 -0.000  0.000 -0.000  0.750 -0.000
 -0.000  0.000  0.000 -0.000  0.750
   spin  2
    eigenvalues: 
  0.121  0.171  0.171  0.301  0.301
    eigenvectors:
  1.000  0.000  0.000  0.000  0.000
  0.000  0.000  0.000  0.921  0.079
  0.000  0.000  0.000  0.079  0.921
  0.000  0.150  0.850  0.000  0.000
  0.000  0.850  0.150  0.000  0.000
    occupations:
  0.121 -0.000  0.000 -0.000  0.000
 -0.000  0.301 -0.000  0.000  0.000
  0.000 -0.000  0.301 -0.000 -0.000
 -0.000  0.000 -0.000  0.171  0.000
  0.000  0.000 -0.000  0.000  0.171
atomic mag. moment =   2.72307
atom   22   Tr[ns(na)] (up, down, total) =   3.78740  1.06534  4.85274
   spin  1
    eigenvalues: 
  0.744  0.744  0.750  0.750  0.801
    eigenvectors:
  0.000  0.000  0.000  0.000  1.000
  0.750  0.250  0.000  0.000  0.000
  0.250  0.750  0.000  0.000  0.000
  0.000  0.000  0.250  0.750  0.000
  0.000  0.000  0.750  0.250  0.000
    occupations:
  0.801  0.000  0.000 -0.000 -0.000
  0.000  0.744 -0.000 -0.000  0.000
  0.000 -0.000  0.744  0.000 -0.000
 -0.000 -0.000  0.000  0.750 -0.000
 -0.000  0.000 -0.000 -0.000  0.750
   spin  2
    eigenvalues: 
  0.121  0.171  0.171  0.301  0.301
    eigenvectors:
  1.000  0.000  0.000  0.000  0.000
  0.000  0.000  0.000  0.750  0.250
  0.000  0.000  0.000  0.250  0.750
  0.000  0.250  0.750  0.000  0.000
  0.000  0.750  0.250  0.000  0.000
    occupations:
  0.121  0.000  0.000  0.000  0.000
  0.000  0.301 -0.000  0.000 -0.000
  0.000 -0.000  0.301 -0.000  0.000
  0.000  0.000 -0.000  0.171 -0.000
  0.000 -0.000  0.000 -0.000  0.171
atomic mag. moment =   2.72206
atom   25   Tr[ns(na)] (up, down, total) =   3.78740  1.06534  4.85274
   spin  1
    eigenvalues: 
  0.744  0.744  0.750  0.750  0.801
    eigenvectors:
  0.000  0.000  0.000  0.000  1.000
  0.750  0.250  0.000  0.000  0.000
  0.250  0.750  0.000  0.000  0.000
  0.000  0.000  0.250  0.750  0.000
  0.000  0.000  0.750  0.250  0.000
    occupations:
  0.801 -0.000  0.000 -0.000  0.000
 -0.000  0.744  0.000  0.000  0.000
  0.000  0.000  0.744  0.000  0.000
 -0.000  0.000  0.000  0.750  0.000
  0.000  0.000  0.000  0.000  0.750
   spin  2
    eigenvalues: 
  0.121  0.171  0.171  0.301  0.301
    eigenvectors:
  1.000  0.000  0.000  0.000  0.000
  0.000  0.000  0.000  0.750  0.250
  0.000  0.000  0.000  0.250  0.750
  0.000  0.250  0.750  0.000  0.000
  0.000  0.750  0.250  0.000  0.000
    occupations:
  0.121 -0.000  0.000  0.000 -0.000
 -0.000  0.301  0.000 -0.000 -0.000
  0.000  0.000  0.301 -0.000 -0.000
  0.000 -0.000 -0.000  0.171  0.000
 -0.000 -0.000 -0.000  0.000  0.171
atomic mag. moment =   2.72206
atom   28   Tr[ns(na)] (up, down, total) =   3.78842  1.06535  4.85377
   spin  1
    eigenvalues: 
  0.744  0.744  0.750  0.750  0.801
    eigenvectors:
  0.000  0.000  0.000  0.000  1.000
  0.362  0.638  0.000  0.000  0.000
  0.638  0.362  0.000  0.000  0.000
  0.000  0.000  0.387  0.613  0.000
  0.000  0.000  0.613  0.387  0.000
    occupations:
  0.801 -0.000  0.000 -0.000  0.000
 -0.000  0.744  0.000 -0.000  0.000
  0.000  0.000  0.744 -0.000 -0.000
 -0.000 -0.000 -0.000  0.750  0.000
  0.000  0.000 -0.000  0.000  0.750
   spin  2
    eigenvalues: 
  0.121  0.171  0.171  0.301  0.301
    eigenvectors:
  1.000  0.000  0.000  0.000  0.000
  0.000  0.000  0.000  0.921  0.079
  0.000  0.000  0.000  0.079  0.921
  0.000  0.150  0.850  0.000  0.000
  0.000  0.850  0.150  0.000  0.000
    occupations:
  0.121  0.000  0.000 -0.000 -0.000
  0.000  0.301  0.000 -0.000  0.000
  0.000  0.000  0.301 -0.000  0.000
 -0.000 -0.000 -0.000  0.171 -0.000
 -0.000  0.000  0.000 -0.000  0.171
atomic mag. moment =   2.72307
atom   31   Tr[ns(na)] (up, down, total) =   3.78946  1.06555  4.85501
   spin  1
    eigenvalues: 
  0.744  0.744  0.750  0.750  0.801
    eigenvectors:
  0.000  0.000  0.000  0.000  1.000
  0.750  0.250  0.000  0.000  0.000
  0.250  0.750  0.000  0.000  0.000
  0.000  0.000  0.750  0.250  0.000
  0.000  0.000  0.250  0.750  0.000
    occupations:
  0.801 -0.000 -0.000 -0.000 -0.000
 -0.000  0.744 -0.000 -0.000 -0.000
 -0.000 -0.000  0.744 -0.000 -0.000
 -0.000 -0.000 -0.000  0.750  0.000
 -0.000 -0.000 -0.000  0.000  0.750
   spin  2
    eigenvalues: 
  0.121  0.171  0.171  0.301  0.301
    eigenvectors:
  1.000  0.000  0.000  0.000  0.000
  0.000  0.000  0.000  0.750  0.250
  0.000  0.000  0.000  0.250  0.750
  0.000  0.250  0.750  0.000  0.000
  0.000  0.750  0.250  0.000  0.000
    occupations:
  0.121  0.000  0.000  0.000  0.000
  0.000  0.301 -0.000 -0.000 -0.000
  0.000 -0.000  0.301 -0.000 -0.000
  0.000 -0.000 -0.000  0.171 -0.000
  0.000 -0.000 -0.000 -0.000  0.171
atomic mag. moment =   2.72391
atom   34   Tr[ns(na)] (up, down, total) =   3.79081  1.06572  4.85653
   spin  1
    eigenvalues: 
  0.744  0.744  0.750  0.750  0.802
    eigenvectors:
  0.000  0.000  0.000  0.000  1.000
  0.250  0.750  0.000  0.000  0.000
  0.750  0.250  0.000  0.000  0.000
  0.000  0.000  0.250  0.750  0.000
  0.000  0.000  0.750  0.250  0.000
    occupations:
  0.802 -0.000  0.000  0.000 -0.000
 -0.000  0.744 -0.000 -0.000  0.000
  0.000 -0.000  0.744  0.000 -0.000
  0.000 -0.000  0.000  0.750  0.000
 -0.000  0.000 -0.000  0.000  0.750
   spin  2
    eigenvalues: 
  0.121  0.171  0.171  0.301  0.301
    eigenvectors:
  1.000  0.000  0.000  0.000  0.000
  0.000  0.000  0.000  0.250  0.750
  0.000  0.000  0.000  0.750  0.250
  0.000  0.750  0.250  0.000  0.000
  0.000  0.250  0.750  0.000  0.000
    occupations:
  0.121 -0.000  0.000 -0.000  0.000
 -0.000  0.301 -0.000 -0.000  0.000
  0.000 -0.000  0.301 -0.000 -0.000
 -0.000 -0.000 -0.000  0.171 -0.000
  0.000  0.000 -0.000 -0.000  0.171
atomic mag. moment =   2.72509
atom   37   Tr[ns(na)] (up, down, total) =   3.78740  1.06534  4.85274
   spin  1
    eigenvalues: 
  0.744  0.744  0.750  0.750  0.801
    eigenvectors:
  0.000  0.000  0.000  0.000  1.000
  0.000  1.000  0.000  0.000  0.000
  1.000  0.000  0.000  0.000  0.000
  0.000  0.000  1.000  0.000  0.000
  0.000  0.000  0.000  1.000  0.000
    occupations:
  0.801 -0.000 -0.000  0.000 -0.000
 -0.000  0.744 -0.000  0.000  0.000
 -0.000 -0.000  0.744  0.000 -0.000
  0.000  0.000  0.000  0.750  0.000
 -0.000  0.000 -0.000  0.000  0.750
   spin  2
    eigenvalues: 
  0.121  0.171  0.171  0.301  0.301
    eigenvectors:
  1.000  0.000  0.000  0.000  0.000
  0.000  0.000  0.000  0.000  1.000
  0.000  0.000  0.000  1.000  0.000
  0.000  1.000  0.000  0.000  0.000
  0.000  0.000  1.000  0.000  0.000
    occupations:
  0.121 -0.000 -0.000 -0.000 -0.000
 -0.000  0.301 -0.000  0.000 -0.000
 -0.000 -0.000  0.301  0.000  0.000
 -0.000  0.000  0.000  0.171  0.000
 -0.000 -0.000  0.000  0.000  0.171
atomic mag. moment =   2.72206
atom   40   Tr[ns(na)] (up, down, total) =   3.78842  1.06535  4.85377
   spin  1
    eigenvalues: 
  0.744  0.744  0.750  0.750  0.801
    eigenvectors:
  0.000  0.000  0.000  0.000  1.000
  0.153  0.847  0.000  0.000  0.000
  0.847  0.153  0.000  0.000  0.000
  0.000  0.000  0.978  0.022  0.000
  0.000  0.000  0.022  0.978  0.000
    occupations:
  0.801 -0.000 -0.000  0.000  0.000
 -0.000  0.744 -0.000  0.000 -0.000
 -0.000 -0.000  0.744  0.000 -0.000
  0.000  0.000  0.000  0.750 -0.000
  0.000 -0.000 -0.000 -0.000  0.750
   spin  2
    eigenvalues: 
  0.121  0.171  0.171  0.301  0.301
    eigenvectors:
  1.000  0.000  0.000  0.000  0.000
  0.000  0.000  0.000  0.056  0.944
  0.000  0.000  0.000  0.944  0.056
  0.000  0.365  0.635  0.000  0.000
  0.000  0.635  0.365  0.000  0.000
    occupations:
  0.121 -0.000  0.000  0.000  0.000
 -0.000  0.301  0.000 -0.000 -0.000
  0.000  0.000  0.301  0.000 -0.000
  0.000 -0.000  0.000  0.171  0.000
  0.000 -0.000 -0.000  0.000  0.171
atomic mag. moment =   2.72307
atom   43   Tr[ns(na)] (up, down, total) =   3.78842  1.06535  4.85377
   spin  1
    eigenvalues: 
  0.744  0.744  0.750  0.750  0.801
    eigenvectors:
  0.000  0.000  0.000  0.000  1.000
  0.153  0.847  0.000  0.000  0.000
  0.847  0.153  0.000  0.000  0.000
  0.000  0.000  0.978  0.022  0.000
  0.000  0.000  0.022  0.978  0.000
    occupations:
  0.801  0.000 -0.000  0.000 -0.000
  0.000  0.744  0.000 -0.000 -0.000
 -0.000  0.000  0.744  0.000  0.000
  0.000 -0.000  0.000  0.750  0.000
 -0.000 -0.000  0.000  0.000  0.750
   spin  2
    eigenvalues: 
  0.121  0.171  0.171  0.301  0.301
    eigenvectors:
  1.000  0.000  0.000  0.000  0.000
  0.000  0.000  0.000  0.056  0.944
  0.000  0.000  0.000  0.944  0.056
  0.000  0.365  0.635  0.000  0.000
  0.000  0.635  0.365  0.000  0.000
    occupations:
  0.121  0.000  0.000  0.000 -0.000
  0.000  0.301 -0.000  0.000 -0.000
  0.000 -0.000  0.301  0.000  0.000
  0.000  0.000  0.000  0.171 -0.000
 -0.000 -0.000  0.000 -0.000  0.171
atomic mag. moment =   2.72307
atom   46   Tr[ns(na)] (up, down, total) =   3.79081  1.06572  4.85653
   spin  1
    eigenvalues: 
  0.744  0.744  0.750  0.750  0.802
    eigenvectors:
  0.000  0.000  0.000  0.000  1.000
  0.250  0.750  0.000  0.000  0.000
  0.750  0.250  0.000  0.000  0.000
  0.000  0.000  0.250  0.750  0.000
  0.000  0.000  0.750  0.250  0.000
    occupations:
  0.802  0.000  0.000  0.000  0.000
  0.000  0.744  0.000  0.000  0.000
  0.000  0.000  0.744  0.000  0.000
  0.000  0.000  0.000  0.750 -0.000
  0.000  0.000  0.000 -0.000  0.750
   spin  2
    eigenvalues: 
  0.121  0.171  0.171  0.301  0.301
    eigenvectors:
  1.000  0.000  0.000  0.000  0.000
  0.000  0.000  0.000  0.250  0.750
  0.000  0.000  0.000  0.750  0.250
  0.000  0.750  0.250  0.000  0.000
  0.000  0.250  0.750  0.000  0.000
    occupations:
  0.121  0.000  0.000 -0.000 -0.000
  0.000  0.301  0.000  0.000  0.000
  0.000  0.000  0.301 -0.000  0.000
 -0.000  0.000 -0.000  0.171  0.000
 -0.000  0.000  0.000  0.000  0.171
atomic mag. moment =   2.72509
N of occupied +U levels =   77.671705
 --- exit write_ns ---

     negative rho (up, down):  7.237E-06 7.463E-07

     total cpu time spent up to now is      133.1 secs

     total energy              =  -11398.31898039 Ry
     estimated scf accuracy    <       4.01123500 Ry

     total magnetization       =    18.96 Bohr mag/cell
     absolute magnetization    =    60.11 Bohr mag/cell

     iteration #  2     ecut=    75.00 Ry     beta= 0.70
     Davidson diagonalization with overlap
     ethr =  1.00E-03,  avg # of iterations =  3.1

     negative rho (up, down):  1.689E-06 5.148E-07

     total cpu time spent up to now is      209.2 secs

     total energy              =  -11399.63167435 Ry
     estimated scf accuracy    <       1.85377536 Ry

     total magnetization       =    17.53 Bohr mag/cell
     absolute magnetization    =    57.75 Bohr mag/cell

     iteration #  3     ecut=    75.00 Ry     beta= 0.70
     Davidson diagonalization with overlap
     ethr =  4.63E-04,  avg # of iterations =  1.4

     negative rho (up, down):  7.810E-07 9.943E-07

     total cpu time spent up to now is      273.9 secs

     total energy              =  -11399.66164475 Ry
     estimated scf accuracy    <       0.95117963 Ry

     total magnetization       =    16.22 Bohr mag/cell
     absolute magnetization    =    55.52 Bohr mag/cell

     iteration #  4     ecut=    75.00 Ry     beta= 0.70
     Davidson diagonalization with overlap
     c_bands:  3 eigenvalues not converged
     ethr =  2.38E-04,  avg # of iterations =  8.4

     negative rho (up, down):  3.041E-08 3.266E-08

     total cpu time spent up to now is      364.9 secs

     total energy              =  -11399.86595585 Ry
     estimated scf accuracy    <       0.09852239 Ry

     total magnetization       =    15.99 Bohr mag/cell
     absolute magnetization    =    49.17 Bohr mag/cell

     iteration #  5     ecut=    75.00 Ry     beta= 0.70
     Davidson diagonalization with overlap
     c_bands:  5 eigenvalues not converged
     ethr =  2.46E-05,  avg # of iterations =  8.6

     total cpu time spent up to now is      464.8 secs

     total energy              =  -11399.91269313 Ry
     estimated scf accuracy    <       0.05631791 Ry

     total magnetization       =    15.99 Bohr mag/cell
     absolute magnetization    =    44.66 Bohr mag/cell

     iteration #  6     ecut=    75.00 Ry     beta= 0.70
     Davidson diagonalization with overlap
     ethr =  1.41E-05,  avg # of iterations =  3.6

     total cpu time spent up to now is      539.4 secs

     total energy              =  -11399.91616137 Ry
     estimated scf accuracy    <       0.02372428 Ry

     total magnetization       =    15.99 Bohr mag/cell
     absolute magnetization    =    42.82 Bohr mag/cell

     iteration #  7     ecut=    75.00 Ry     beta= 0.70
     Davidson diagonalization with overlap
     ethr =  5.93E-06,  avg # of iterations =  8.3

     total cpu time spent up to now is      636.6 secs

     total energy              =  -11399.92638122 Ry
     estimated scf accuracy    <       0.02023218 Ry

     total magnetization       =    15.99 Bohr mag/cell
     absolute magnetization    =    39.82 Bohr mag/cell

     iteration #  8     ecut=    75.00 Ry     beta= 0.70
     Davidson diagonalization with overlap
     ethr =  5.06E-06,  avg # of iterations =  4.6

     negative rho (up, down):  5.491E-03 5.895E-03

     total cpu time spent up to now is      716.2 secs

     total energy              =  -11399.92889386 Ry
     estimated scf accuracy    <       0.00875902 Ry

     total magnetization       =    15.99 Bohr mag/cell
     absolute magnetization    =    37.78 Bohr mag/cell

     iteration #  9     ecut=    75.00 Ry     beta= 0.70
     Davidson diagonalization with overlap
     ethr =  2.19E-06,  avg # of iterations =  6.1

     negative rho (up, down):  2.079E-02 2.106E-02

     total cpu time spent up to now is      796.6 secs

     total energy              =  -11399.93133775 Ry
     estimated scf accuracy    <       0.00369906 Ry

     total magnetization       =    15.99 Bohr mag/cell
     absolute magnetization    =    36.77 Bohr mag/cell

     iteration # 10     ecut=    75.00 Ry     beta= 0.70
     Davidson diagonalization with overlap
     ethr =  9.25E-07,  avg # of iterations =  3.5

     negative rho (up, down):  1.114E-02 1.122E-02

     total cpu time spent up to now is      867.0 secs

     total energy              =  -11399.93165430 Ry
     estimated scf accuracy    <       0.00146274 Ry

     total magnetization       =    15.99 Bohr mag/cell
     absolute magnetization    =    36.84 Bohr mag/cell

     iteration # 11     ecut=    75.00 Ry     beta= 0.70
     Davidson diagonalization with overlap
     ethr =  3.66E-07,  avg # of iterations =  4.8

     negative rho (up, down):  2.445E-03 2.480E-03

     total cpu time spent up to now is      955.1 secs

     total energy              =  -11399.93286034 Ry
     estimated scf accuracy    <       0.00026525 Ry

     total magnetization       =    15.99 Bohr mag/cell
     absolute magnetization    =    37.65 Bohr mag/cell

     iteration # 12     ecut=    75.00 Ry     beta= 0.70
     Davidson diagonalization with overlap
     ethr =  6.63E-08,  avg # of iterations =  6.1

     negative rho (up, down):  1.361E-03 1.401E-03

     total cpu time spent up to now is     1050.1 secs

     total energy              =  -11399.93326152 Ry
     estimated scf accuracy    <       0.00002353 Ry

     total magnetization       =    15.99 Bohr mag/cell
     absolute magnetization    =    38.08 Bohr mag/cell

     iteration # 13     ecut=    75.00 Ry     beta= 0.70
     Davidson diagonalization with overlap
     ethr =  5.88E-09,  avg # of iterations =  4.2

     negative rho (up, down):  1.363E-03 1.404E-03

     total cpu time spent up to now is     1128.3 secs

     total energy              =  -11399.93326349 Ry
     estimated scf accuracy    <       0.00000657 Ry

     total magnetization       =    15.99 Bohr mag/cell
     absolute magnetization    =    38.11 Bohr mag/cell

     iteration # 14     ecut=    75.00 Ry     beta= 0.70
     Davidson diagonalization with overlap
     ethr =  1.64E-09,  avg # of iterations =  5.9

     negative rho (up, down):  1.241E-03 1.286E-03

     total cpu time spent up to now is     1239.0 secs

     total energy              =  -11399.93329294 Ry
     estimated scf accuracy    <       0.00000056 Ry

     total magnetization       =    15.99 Bohr mag/cell
     absolute magnetization    =    38.23 Bohr mag/cell

     iteration # 15     ecut=    75.00 Ry     beta= 0.70
     Davidson diagonalization with overlap
     ethr =  1.41E-10,  avg # of iterations =  5.1

     negative rho (up, down):  1.205E-03 1.254E-03

     total cpu time spent up to now is     1345.7 secs

     total energy              =  -11399.93329559 Ry
     estimated scf accuracy    <       0.00000015 Ry

     total magnetization       =    15.99 Bohr mag/cell
     absolute magnetization    =    38.25 Bohr mag/cell

     iteration # 16     ecut=    75.00 Ry     beta= 0.70
     Davidson diagonalization with overlap
     ethr =  3.83E-11,  avg # of iterations =  4.5

     negative rho (up, down):  1.190E-03 1.240E-03
 
     Magnetic moment per site  (integrated on atomic sphere of radius R)
     atom   1 (R=0.078)  charge= 10.2048  magn=  1.1216
     atom   2 (R=0.078)  charge=  4.0406  magn= -0.2582
     atom   3 (R=0.078)  charge=  4.0406  magn= -0.2582
     atom   4 (R=0.078)  charge= 10.2048  magn=  1.1216
     atom   5 (R=0.078)  charge=  4.0406  magn= -0.2582
     atom   6 (R=0.078)  charge=  4.0406  magn= -0.2582
     atom   7 (R=0.078)  charge= 10.2048  magn=  1.1216
     atom   8 (R=0.078)  charge=  4.0406  magn= -0.2582
     atom   9 (R=0.078)  charge=  4.0406  magn= -0.2582
     atom  10 (R=0.078)  charge= 10.2048  magn=  1.1216
     atom  11 (R=0.078)  charge=  4.0406  magn= -0.2582
     atom  12 (R=0.078)  charge=  4.0406  magn= -0.2582
     atom  13 (R=0.078)  charge= 10.2048  magn=  1.1216
     atom  14 (R=0.078)  charge=  4.0406  magn= -0.2582
     atom  15 (R=0.078)  charge=  4.0406  magn= -0.2582
     atom  16 (R=0.078)  charge= 10.2048  magn=  1.1216
     atom  17 (R=0.078)  charge=  4.0406  magn= -0.2582
     atom  18 (R=0.078)  charge=  4.0406  magn= -0.2582
     atom  19 (R=0.078)  charge= 10.2048  magn=  1.1216
     atom  20 (R=0.078)  charge=  4.0406  magn= -0.2582
     atom  21 (R=0.078)  charge=  4.0406  magn= -0.2582
     atom  22 (R=0.078)  charge= 10.2047  magn=  1.1216
     atom  23 (R=0.078)  charge=  4.0406  magn= -0.2582
     atom  24 (R=0.078)  charge=  4.0406  magn= -0.2582
     atom  25 (R=0.078)  charge= 10.2047  magn=  1.1216
     atom  26 (R=0.078)  charge=  4.0406  magn= -0.2582
     atom  27 (R=0.078)  charge=  4.0406  magn= -0.2582
     atom  28 (R=0.078)  charge= 10.2048  magn=  1.1216
     atom  29 (R=0.078)  charge=  4.0406  magn= -0.2582
     atom  30 (R=0.078)  charge=  4.0406  magn= -0.2582
     atom  31 (R=0.078)  charge= 10.2048  magn=  1.1216
     atom  32 (R=0.078)  charge=  4.0406  magn= -0.2582
     atom  33 (R=0.078)  charge=  4.0406  magn= -0.2582
     atom  34 (R=0.078)  charge= 10.2048  magn=  1.1216
     atom  35 (R=0.078)  charge=  4.0406  magn= -0.2582
     atom  36 (R=0.078)  charge=  4.0406  magn= -0.2582
     atom  37 (R=0.078)  charge= 10.2047  magn=  1.1216
     atom  38 (R=0.078)  charge=  4.0406  magn= -0.2582
     atom  39 (R=0.078)  charge=  4.0406  magn= -0.2582
     atom  40 (R=0.078)  charge= 10.2048  magn=  1.1216
     atom  41 (R=0.078)  charge=  4.0406  magn= -0.2582
     atom  42 (R=0.078)  charge=  4.0406  magn= -0.2582
     atom  43 (R=0.078)  charge= 10.2048  magn=  1.1216
     atom  44 (R=0.078)  charge=  4.0406  magn= -0.2582
     atom  45 (R=0.078)  charge=  4.0406  magn= -0.2582
     atom  46 (R=0.078)  charge= 10.2048  magn=  1.1216
     atom  47 (R=0.078)  charge=  4.0406  magn= -0.2582
     atom  48 (R=0.078)  charge=  4.0406  magn= -0.2582

     total cpu time spent up to now is     1425.7 secs

     End of self-consistent calculation
 --- enter write_ns ---
 LDA+U parameters:
U( 1)     =  7.56810000
atom    1   Tr[ns(na)] (up, down, total) =   3.63131  1.80943  5.44074
   spin  1
    eigenvalues: 
  0.700  0.700  0.734  0.734  0.763
    eigenvectors:
  0.000  0.000  0.000  0.000  1.000
  0.088  0.912  0.000  0.000  0.000
  0.912  0.088  0.000  0.000  0.000
  0.000  0.000  0.183  0.817  0.000
  0.000  0.000  0.817  0.183  0.000
    occupations:
  0.763 -0.000 -0.000 -0.000 -0.000
 -0.000  0.700 -0.000  0.000  0.000
 -0.000 -0.000  0.700  0.000 -0.000
 -0.000  0.000  0.000  0.734  0.000
 -0.000  0.000 -0.000  0.000  0.734
   spin  2
    eigenvalues: 
  0.139  0.257  0.257  0.578  0.578
    eigenvectors:
  1.000  0.000  0.000  0.000  0.000
  0.000  0.000  0.000  0.088  0.912
  0.000  0.000  0.000  0.912  0.088
  0.000  0.183  0.817  0.000  0.000
  0.000  0.817  0.183  0.000  0.000
    occupations:
  0.139 -0.000 -0.000 -0.000 -0.000
 -0.000  0.578 -0.000  0.000  0.000
 -0.000 -0.000  0.578  0.000  0.000
 -0.000  0.000  0.000  0.257  0.000
 -0.000  0.000  0.000  0.000  0.257
atomic mag. moment =   1.82188
atom    4   Tr[ns(na)] (up, down, total) =   3.63127  1.80941  5.44069
   spin  1
    eigenvalues: 
  0.700  0.700  0.734  0.734  0.763
    eigenvectors:
  0.000  0.000  0.000  0.000  1.000
  0.329  0.671  0.000  0.000  0.000
  0.671  0.329  0.000  0.000  0.000
  0.000  0.000  0.042  0.958  0.000
  0.000  0.000  0.958  0.042  0.000
    occupations:
  0.763 -0.000 -0.000  0.000 -0.000
 -0.000  0.700 -0.000  0.000  0.000
 -0.000 -0.000  0.700  0.000  0.000
  0.000  0.000  0.000  0.734 -0.000
 -0.000  0.000  0.000 -0.000  0.734
   spin  2
    eigenvalues: 
  0.139  0.257  0.257  0.578  0.578
    eigenvectors:
  1.000  0.000  0.000  0.000  0.000
  0.000  0.000  0.000  0.836  0.164
  0.000  0.000  0.000  0.164  0.836
  0.000  0.993  0.007  0.000  0.000
  0.000  0.007  0.993  0.000  0.000
    occupations:
  0.139  0.000 -0.000  0.000  0.000
  0.000  0.578 -0.000 -0.000 -0.000
 -0.000 -0.000  0.578 -0.000  0.000
  0.000 -0.000 -0.000  0.257  0.000
  0.000 -0.000  0.000  0.000  0.257
atomic mag. moment =   1.82186
atom    7   Tr[ns(na)] (up, down, total) =   3.63131  1.80943  5.44074
   spin  1
    eigenvalues: 
  0.700  0.700  0.734  0.734  0.763
    eigenvectors:
  0.000  0.000  0.000  0.000  1.000
  1.000  0.000  0.000  0.000  0.000
  0.000  1.000  0.000  0.000  0.000
  0.000  0.000  0.000  1.000  0.000
  0.000  0.000  1.000  0.000  0.000
    occupations:
  0.763 -0.000 -0.000 -0.000 -0.000
 -0.000  0.700 -0.000  0.000  0.000
 -0.000 -0.000  0.700  0.000 -0.000
 -0.000  0.000  0.000  0.734  0.000
 -0.000  0.000 -0.000  0.000  0.734
   spin  2
    eigenvalues: 
  0.139  0.257  0.257  0.578  0.578
    eigenvectors:
  1.000  0.000  0.000  0.000  0.000
  0.000  0.000  0.000  1.000  0.000
  0.000  0.000  0.000  0.000  1.000
  0.000  1.000  0.000  0.000  0.000
  0.000  0.000  1.000  0.000  0.000
    occupations:
  0.139 -0.000  0.000 -0.000 -0.000
 -0.000  0.578 -0.000  0.000 -0.000
  0.000 -0.000  0.578 -0.000  0.000
 -0.000  0.000 -0.000  0.257  0.000
 -0.000 -0.000  0.000  0.000  0.257
atomic mag. moment =   1.82188
atom   10   Tr[ns(na)] (up, down, total) =   3.63127  1.80941  5.44069
   spin  1
    eigenvalues: 
  0.700  0.700  0.734  0.734  0.763
    eigenvectors:
  0.000  0.000  0.000  0.000  1.000
  0.329  0.671  0.000  0.000  0.000
  0.671  0.329  0.000  0.000  0.000
  0.000  0.000  0.042  0.958  0.000
  0.000  0.000  0.958  0.042  0.000
    occupations:
  0.763  0.000 -0.000  0.000  0.000
  0.000  0.700  0.000 -0.000  0.000
 -0.000  0.000  0.700  0.000 -0.000
  0.000 -0.000  0.000  0.734  0.000
  0.000  0.000 -0.000  0.000  0.734
   spin  2
    eigenvalues: 
  0.139  0.257  0.257  0.578  0.578
    eigenvectors:
  1.000  0.000  0.000  0.000  0.000
  0.000  0.000  0.000  0.836  0.164
  0.000  0.000  0.000  0.164  0.836
  0.000  0.993  0.007  0.000  0.000
  0.000  0.007  0.993  0.000  0.000
    occupations:
  0.139 -0.000 -0.000  0.000 -0.000
 -0.000  0.578  0.000  0.000 -0.000
 -0.000  0.000  0.578 -0.000 -0.000
  0.000  0.000 -0.000  0.257 -0.000
 -0.000 -0.000 -0.000 -0.000  0.257
atomic mag. moment =   1.82186
atom   13   Tr[ns(na)] (up, down, total) =   3.63127  1.80941  5.44069
   spin  1
    eigenvalues: 
  0.700  0.700  0.734  0.734  0.763
    eigenvectors:
  0.000  0.000  0.000  0.000  1.000
  0.750  0.250  0.000  0.000  0.000
  0.250  0.750  0.000  0.000  0.000
  0.000  0.000  0.250  0.750  0.000
  0.000  0.000  0.750  0.250  0.000
    occupations:
  0.763  0.000 -0.000 -0.000  0.000
  0.000  0.700  0.000  0.000 -0.000
 -0.000  0.000  0.700 -0.000  0.000
 -0.000  0.000 -0.000  0.734  0.000
  0.000 -0.000  0.000  0.000  0.734
   spin  2
    eigenvalues: 
  0.139  0.257  0.257  0.578  0.578
    eigenvectors:
  1.000  0.000  0.000  0.000  0.000
  0.000  0.000  0.000  0.750  0.250
  0.000  0.000  0.000  0.250  0.750
  0.000  0.750  0.250  0.000  0.000
  0.000  0.250  0.750  0.000  0.000
    occupations:
  0.139 -0.000  0.000 -0.000  0.000
 -0.000  0.578  0.000 -0.000 -0.000
  0.000  0.000  0.578 -0.000 -0.000
 -0.000 -0.000 -0.000  0.257 -0.000
  0.000 -0.000 -0.000 -0.000  0.257
atomic mag. moment =   1.82186
atom   16   Tr[ns(na)] (up, down, total) =   3.63127  1.80941  5.44069
   spin  1
    eigenvalues: 
  0.700  0.700  0.734  0.734  0.763
    eigenvectors:
  0.000  0.000  0.000  0.000  1.000
  0.000  1.000  0.000  0.000  0.000
  1.000  0.000  0.000  0.000  0.000
  0.000  0.000  1.000  0.000  0.000
  0.000  0.000  0.000  1.000  0.000
    occupations:
  0.763 -0.000  0.000  0.000 -0.000
 -0.000  0.700 -0.000  0.000 -0.000
  0.000 -0.000  0.700 -0.000 -0.000
  0.000  0.000 -0.000  0.734  0.000
 -0.000 -0.000 -0.000  0.000  0.734
   spin  2
    eigenvalues: 
  0.139  0.257  0.257  0.578  0.578
    eigenvectors:
  1.000  0.000  0.000  0.000  0.000
  0.000  0.000  0.000  0.000  1.000
  0.000  0.000  0.000  1.000  0.000
  0.000  0.000  1.000  0.000  0.000
  0.000  1.000  0.000  0.000  0.000
    occupations:
  0.139 -0.000 -0.000  0.000 -0.000
 -0.000  0.578 -0.000  0.000 -0.000
 -0.000 -0.000  0.578  0.000  0.000
  0.000  0.000  0.000  0.257  0.000
 -0.000 -0.000  0.000  0.000  0.257
atomic mag. moment =   1.82186
atom   19   Tr[ns(na)] (up, down, total) =   3.63127  1.80941  5.44069
   spin  1
    eigenvalues: 
  0.700  0.700  0.734  0.734  0.763
    eigenvectors:
  0.000  0.000  0.000  0.000  1.000
  0.178  0.822  0.000  0.000  0.000
  0.822  0.178  0.000  0.000  0.000
  0.000  0.000  0.903  0.097  0.000
  0.000  0.000  0.097  0.903  0.000
    occupations:
  0.763 -0.000  0.000 -0.000  0.000
 -0.000  0.700  0.000 -0.000  0.000
  0.000  0.000  0.700  0.000 -0.000
 -0.000 -0.000  0.000  0.734 -0.000
  0.000  0.000 -0.000 -0.000  0.734
   spin  2
    eigenvalues: 
  0.139  0.257  0.257  0.578  0.578
    eigenvectors:
  1.000  0.000  0.000  0.000  0.000
  0.000  0.000  0.000  0.011  0.989
  0.000  0.000  0.000  0.989  0.011
  0.000  0.181  0.819  0.000  0.000
  0.000  0.819  0.181  0.000  0.000
    occupations:
  0.139 -0.000 -0.000 -0.000  0.000
 -0.000  0.578 -0.000 -0.000 -0.000
 -0.000 -0.000  0.578 -0.000  0.000
 -0.000 -0.000 -0.000  0.257  0.000
  0.000 -0.000  0.000  0.000  0.257
atomic mag. moment =   1.82186
atom   22   Tr[ns(na)] (up, down, total) =   3.63126  1.80941  5.44067
   spin  1
    eigenvalues: 
  0.700  0.700  0.734  0.734  0.763
    eigenvectors:
  0.000  0.000  0.000  0.000  1.000
  0.250  0.750  0.000  0.000  0.000
  0.750  0.250  0.000  0.000  0.000
  0.000  0.000  0.250  0.750  0.000
  0.000  0.000  0.750  0.250  0.000
    occupations:
  0.763  0.000  0.000 -0.000 -0.000
  0.000  0.700  0.000 -0.000  0.000
  0.000  0.000  0.700  0.000 -0.000
 -0.000 -0.000  0.000  0.734 -0.000
 -0.000  0.000 -0.000 -0.000  0.734
   spin  2
    eigenvalues: 
  0.139  0.257  0.257  0.578  0.578
    eigenvectors:
  1.000  0.000  0.000  0.000  0.000
  0.000  0.000  0.000  0.750  0.250
  0.000  0.000  0.000  0.250  0.750
  0.000  0.250  0.750  0.000  0.000
  0.000  0.750  0.250  0.000  0.000
    occupations:
  0.139 -0.000 -0.000 -0.000 -0.000
 -0.000  0.578 -0.000  0.000  0.000
 -0.000 -0.000  0.578 -0.000  0.000
 -0.000  0.000 -0.000  0.257 -0.000
 -0.000  0.000  0.000 -0.000  0.257
atomic mag. moment =   1.82185
atom   25   Tr[ns(na)] (up, down, total) =   3.63126  1.80941  5.44067
   spin  1
    eigenvalues: 
  0.700  0.700  0.734  0.734  0.763
    eigenvectors:
  0.000  0.000  0.000  0.000  1.000
  0.250  0.750  0.000  0.000  0.000
  0.750  0.250  0.000  0.000  0.000
  0.000  0.000  0.250  0.750  0.000
  0.000  0.000  0.750  0.250  0.000
    occupations:
  0.763 -0.000  0.000 -0.000  0.000
 -0.000  0.700 -0.000  0.000  0.000
  0.000 -0.000  0.700  0.000  0.000
 -0.000  0.000  0.000  0.734  0.000
  0.000  0.000  0.000  0.000  0.734
   spin  2
    eigenvalues: 
  0.139  0.257  0.257  0.578  0.578
    eigenvectors:
  1.000  0.000  0.000  0.000  0.000
  0.000  0.000  0.000  0.750  0.250
  0.000  0.000  0.000  0.250  0.750
  0.000  0.250  0.750  0.000  0.000
  0.000  0.750  0.250  0.000  0.000
    occupations:
  0.139  0.000 -0.000 -0.000  0.000
  0.000  0.578  0.000 -0.000  0.000
 -0.000  0.000  0.578 -0.000 -0.000
 -0.000 -0.000 -0.000  0.257  0.000
  0.000  0.000 -0.000  0.000  0.257
atomic mag. moment =   1.82185
atom   28   Tr[ns(na)] (up, down, total) =   3.63127  1.80941  5.44069
   spin  1
    eigenvalues: 
  0.700  0.700  0.734  0.734  0.763
    eigenvectors:
  0.000  0.000  0.000  0.000  1.000
  0.178  0.822  0.000  0.000  0.000
  0.822  0.178  0.000  0.000  0.000
  0.000  0.000  0.903  0.097  0.000
  0.000  0.000  0.097  0.903  0.000
    occupations:
  0.763  0.000  0.000 -0.000 -0.000
  0.000  0.700 -0.000  0.000  0.000
  0.000 -0.000  0.700  0.000  0.000
 -0.000  0.000  0.000  0.734  0.000
 -0.000  0.000  0.000  0.000  0.734
   spin  2
    eigenvalues: 
  0.139  0.257  0.257  0.578  0.578
    eigenvectors:
  1.000  0.000  0.000  0.000  0.000
  0.000  0.000  0.000  0.011  0.989
  0.000  0.000  0.000  0.989  0.011
  0.000  0.181  0.819  0.000  0.000
  0.000  0.819  0.181  0.000  0.000
    occupations:
  0.139  0.000 -0.000 -0.000 -0.000
  0.000  0.578  0.000  0.000 -0.000
 -0.000  0.000  0.578 -0.000 -0.000
 -0.000  0.000 -0.000  0.257 -0.000
 -0.000 -0.000 -0.000 -0.000  0.257
atomic mag. moment =   1.82186
atom   31   Tr[ns(na)] (up, down, total) =   3.63127  1.80941  5.44069
   spin  1
    eigenvalues: 
  0.700  0.700  0.734  0.734  0.763
    eigenvectors:
  0.000  0.000  0.000  0.000  1.000
  0.750  0.250  0.000  0.000  0.000
  0.250  0.750  0.000  0.000  0.000
  0.000  0.000  0.250  0.750  0.000
  0.000  0.000  0.750  0.250  0.000
    occupations:
  0.763 -0.000 -0.000 -0.000 -0.000
 -0.000  0.700 -0.000 -0.000 -0.000
 -0.000 -0.000  0.700 -0.000 -0.000
 -0.000 -0.000 -0.000  0.734 -0.000
 -0.000 -0.000 -0.000 -0.000  0.734
   spin  2
    eigenvalues: 
  0.139  0.257  0.257  0.578  0.578
    eigenvectors:
  1.000  0.000  0.000  0.000  0.000
  0.000  0.000  0.000  0.750  0.250
  0.000  0.000  0.000  0.250  0.750
  0.000  0.750  0.250  0.000  0.000
  0.000  0.250  0.750  0.000  0.000
    occupations:
  0.139  0.000  0.000 -0.000 -0.000
  0.000  0.578 -0.000  0.000 -0.000
  0.000 -0.000  0.578 -0.000  0.000
 -0.000  0.000 -0.000  0.257  0.000
 -0.000 -0.000  0.000  0.000  0.257
atomic mag. moment =   1.82186
atom   34   Tr[ns(na)] (up, down, total) =   3.63131  1.80943  5.44074
   spin  1
    eigenvalues: 
  0.700  0.700  0.734  0.734  0.763
    eigenvectors:
  0.000  0.000  0.000  0.000  1.000
  0.250  0.750  0.000  0.000  0.000
  0.750  0.250  0.000  0.000  0.000
  0.000  0.000  0.750  0.250  0.000
  0.000  0.000  0.250  0.750  0.000
    occupations:
  0.763 -0.000  0.000  0.000 -0.000
 -0.000  0.700 -0.000  0.000  0.000
  0.000 -0.000  0.700  0.000  0.000
  0.000  0.000  0.000  0.734 -0.000
 -0.000  0.000  0.000 -0.000  0.734
   spin  2
    eigenvalues: 
  0.139  0.257  0.257  0.578  0.578
    eigenvectors:
  1.000  0.000  0.000  0.000  0.000
  0.000  0.000  0.000  0.250  0.750
  0.000  0.000  0.000  0.750  0.250
  0.000  0.250  0.750  0.000  0.000
  0.000  0.750  0.250  0.000  0.000
    occupations:
  0.139  0.000 -0.000  0.000 -0.000
  0.000  0.578 -0.000 -0.000 -0.000
 -0.000 -0.000  0.578 -0.000 -0.000
  0.000 -0.000 -0.000  0.257  0.000
 -0.000 -0.000 -0.000  0.000  0.257
atomic mag. moment =   1.82188
atom   37   Tr[ns(na)] (up, down, total) =   3.63126  1.80941  5.44067
   spin  1
    eigenvalues: 
  0.700  0.700  0.734  0.734  0.763
    eigenvectors:
  0.000  0.000  0.000  0.000  1.000
  1.000  0.000  0.000  0.000  0.000
  0.000  1.000  0.000  0.000  0.000
  0.000  0.000  1.000  0.000  0.000
  0.000  0.000  0.000  1.000  0.000
    occupations:
  0.763 -0.000 -0.000  0.000 -0.000
 -0.000  0.700 -0.000  0.000  0.000
 -0.000 -0.000  0.700  0.000 -0.000
  0.000  0.000  0.000  0.734  0.000
 -0.000  0.000 -0.000  0.000  0.734
   spin  2
    eigenvalues: 
  0.139  0.257  0.257  0.578  0.578
    eigenvectors:
  1.000  0.000  0.000  0.000  0.000
  0.000  0.000  0.000  0.000  1.000
  0.000  0.000  0.000  1.000  0.000
  0.000  1.000  0.000  0.000  0.000
  0.000  0.000  1.000  0.000  0.000
    occupations:
  0.139 -0.000  0.000  0.000 -0.000
 -0.000  0.578 -0.000  0.000 -0.000
  0.000 -0.000  0.578  0.000  0.000
  0.000  0.000  0.000  0.257  0.000
 -0.000 -0.000  0.000  0.000  0.257
atomic mag. moment =   1.82185
atom   40   Tr[ns(na)] (up, down, total) =   3.63127  1.80941  5.44069
   spin  1
    eigenvalues: 
  0.700  0.700  0.734  0.734  0.763
    eigenvectors:
  0.000  0.000  0.000  0.000  1.000
  0.992  0.008  0.000  0.000  0.000
  0.008  0.992  0.000  0.000  0.000
  0.000  0.000  0.554  0.446  0.000
  0.000  0.000  0.446  0.554  0.000
    occupations:
  0.763 -0.000 -0.000 -0.000  0.000
 -0.000  0.700 -0.000  0.000  0.000
 -0.000 -0.000  0.700  0.000 -0.000
 -0.000  0.000  0.000  0.734 -0.000
  0.000  0.000 -0.000 -0.000  0.734
   spin  2
    eigenvalues: 
  0.139  0.257  0.257  0.578  0.578
    eigenvectors:
  1.000  0.000  0.000  0.000  0.000
  0.000  0.000  0.000  0.652  0.348
  0.000  0.000  0.000  0.348  0.652
  0.000  0.326  0.674  0.000  0.000
  0.000  0.674  0.326  0.000  0.000
    occupations:
  0.139 -0.000  0.000 -0.000  0.000
 -0.000  0.578 -0.000  0.000 -0.000
  0.000 -0.000  0.578 -0.000 -0.000
 -0.000  0.000 -0.000  0.257  0.000
  0.000 -0.000 -0.000  0.000  0.257
atomic mag. moment =   1.82186
atom   43   Tr[ns(na)] (up, down, total) =   3.63127  1.80941  5.44069
   spin  1
    eigenvalues: 
  0.700  0.700  0.734  0.734  0.763
    eigenvectors:
  0.000  0.000  0.000  0.000  1.000
  0.992  0.008  0.000  0.000  0.000
  0.008  0.992  0.000  0.000  0.000
  0.000  0.000  0.554  0.446  0.000
  0.000  0.000  0.446  0.554  0.000
    occupations:
  0.763  0.000 -0.000 -0.000 -0.000
  0.000  0.700  0.000 -0.000  0.000
 -0.000  0.000  0.700  0.000  0.000
 -0.000 -0.000  0.000  0.734  0.000
 -0.000  0.000  0.000  0.000  0.734
   spin  2
    eigenvalues: 
  0.139  0.257  0.257  0.578  0.578
    eigenvectors:
  1.000  0.000  0.000  0.000  0.000
  0.000  0.000  0.000  0.652  0.348
  0.000  0.000  0.000  0.348  0.652
  0.000  0.326  0.674  0.000  0.000
  0.000  0.674  0.326  0.000  0.000
    occupations:
  0.139  0.000  0.000 -0.000 -0.000
  0.000  0.578  0.000 -0.000 -0.000
  0.000  0.000  0.578 -0.000  0.000
 -0.000 -0.000 -0.000  0.257 -0.000
 -0.000 -0.000  0.000 -0.000  0.257
atomic mag. moment =   1.82186
atom   46   Tr[ns(na)] (up, down, total) =   3.63131  1.80943  5.44074
   spin  1
    eigenvalues: 
  0.700  0.700  0.734  0.734  0.763
    eigenvectors:
  0.000  0.000  0.000  0.000  1.000
  0.250  0.750  0.000  0.000  0.000
  0.750  0.250  0.000  0.000  0.000
  0.000  0.000  0.750  0.250  0.000
  0.000  0.000  0.250  0.750  0.000
    occupations:
  0.763  0.000  0.000  0.000  0.000
  0.000  0.700  0.000 -0.000  0.000
  0.000  0.000  0.700  0.000 -0.000
  0.000 -0.000  0.000  0.734  0.000
  0.000  0.000 -0.000  0.000  0.734
   spin  2
    eigenvalues: 
  0.139  0.257  0.257  0.578  0.578
    eigenvectors:
  1.000  0.000  0.000  0.000  0.000
  0.000  0.000  0.000  0.250  0.750
  0.000  0.000  0.000  0.750  0.250
  0.000  0.250  0.750  0.000  0.000
  0.000  0.750  0.250  0.000  0.000
    occupations:
  0.139 -0.000 -0.000  0.000  0.000
 -0.000  0.578  0.000  0.000 -0.000
 -0.000  0.000  0.578 -0.000  0.000
  0.000  0.000 -0.000  0.257 -0.000
  0.000 -0.000  0.000 -0.000  0.257
atomic mag. moment =   1.82188
N of occupied +U levels =   87.051145
 --- exit write_ns ---

 ------ SPIN UP ------------


          k = 0.0000 0.0000 0.0000 (287679 PWs)   bands (ev):

   -56.3898 -56.3708 -56.3708 -56.3708 -56.3600 -56.3600 -56.3600 -56.3599
   -56.3599 -56.3599 -56.3469 -56.3469 -56.3469 -56.3469 -56.3469 -56.3469
   -32.7846 -32.7846 -32.7846 -32.7509 -32.7509 -32.7509 -32.7509 -32.7509
   -32.7509 -32.6585 -32.6585 -32.6585 -32.6585 -32.6585 -32.6585 -32.6480
   -32.6480 -32.6480 -32.6479 -32.6479 -32.6479 -32.5679 -32.5679 -32.5679
   -32.5385 -32.5385 -32.5385 -32.5384 -32.5384 -32.5384 -32.5037 -32.5037
   -32.4667 -32.4419 -32.4419 -32.4419 -32.4419 -32.4419 -32.4419 -32.4071
   -32.4071 -32.4071 -32.4070 -32.4070 -32.4070 -32.4051 -32.4051 -32.4051
   -15.1126 -14.5596 -14.5596 -14.5596 -14.5596 -14.5596 -14.5596 -14.1095
   -14.1095 -14.1095 -14.1095 -14.1095 -14.1095 -14.0662 -14.0442 -14.0442
   -14.0441 -14.0082 -14.0082 -14.0082 -13.9834 -13.9834 -13.9834 -13.9834
   -13.9834 -13.9834 -13.9636 -13.9635 -13.9635 -13.9635 -13.9635 -13.9635
    -7.9900  -7.4953  -7.4953  -7.4953  -7.1257  -7.1257  -7.1256  -7.1256
    -7.1256  -7.1256  -6.9072  -6.9072  -6.9072  -6.9072  -6.9072  -6.9072
    -6.5393  -6.5393  -6.5393  -6.5393  -6.5393  -6.5393  -6.1106  -6.1105
    -6.1105  -6.0799  -6.0799  -6.0799  -5.8304  -5.8304  -5.8304  -5.8303
    -5.8303  -5.8303  -5.2518  -5.2518  -5.2518  -5.2518  -5.2518  -5.2518
    -4.9533  -4.9533  -4.9282  -4.9282  -4.9282  -4.9282  -4.9282  -4.9282
    -4.8953  -4.8953  -4.8953  -4.8953  -4.8953  -4.8953  -4.8124  -4.8124
    -4.8124  -4.5036  -4.5036  -4.5036  -4.5036  -4.5036  -4.5036  -4.1333
    -4.1333  -4.1333  -4.1333  -4.1333  -4.1333  -3.8196  -3.8196  -3.8196
    -3.8195  -3.8195  -3.8195  -3.1877  -3.1877  -3.1385  -3.1385  -3.1384
    -3.0679  -3.0679  -3.0679  -3.0679  -3.0679  -3.0679  -2.9690  -2.9690
    -2.9690  -2.9690  -2.9690  -2.9690  -2.8814  -2.7851  -2.7851  -2.7851
    -2.6996  -2.6996  -2.6996  -2.6996  -2.6996  -2.6996  -2.5537  -2.5537
    -2.5537  -2.5537  -2.5537  -2.5537  -2.3250  -2.3250  -2.3250  -2.1098
    -0.3322  -0.3322  -0.3322  -0.2272  -0.2272  -0.2272  -0.2272  -0.2272
    -0.2272   0.1893   0.1893   0.1893   0.1893   0.1893   0.1893   0.2159
     0.2160   0.2160   0.4400   0.4400   0.4400   0.4400   0.4400   0.4400
     0.4438   0.4438   0.4438   0.4438   0.4438   0.4438   0.8973   0.8973

          k = 0.0000 0.1925 0.0000 (287730 PWs)   bands (ev):

   -56.3880 -56.3698 -56.3692 -56.3692 -56.3636 -56.3609 -56.3609 -56.3590
   -56.3586 -56.3586 -56.3494 -56.3494 -56.3485 -56.3485 -56.3448 -56.3448
   -32.7833 -32.7833 -32.7807 -32.7588 -32.7588 -32.7549 -32.7549 -32.7402
   -32.7402 -32.6935 -32.6769 -32.6769 -32.6666 -32.6666 -32.6414 -32.6414
   -32.6408 -32.6408 -32.6252 -32.6252 -32.6217 -32.5723 -32.5723 -32.5670
   -32.5466 -32.5457 -32.5457 -32.5368 -32.5368 -32.5300 -32.5096 -32.5050
   -32.4661 -32.4495 -32.4453 -32.4453 -32.4373 -32.4373 -32.4335 -32.4126
   -32.4126 -32.4069 -32.4069 -32.4066 -32.4053 -32.4052 -32.4027 -32.4026
   -15.0932 -14.7006 -14.6202 -14.6202 -14.4790 -14.4790 -14.4185 -14.1088
   -14.1088 -14.1078 -14.1058 -14.1058 -14.1040 -14.0705 -14.0705 -14.0692
   -14.0485 -14.0388 -14.0388 -14.0274 -14.0065 -14.0065 -14.0043 -14.0043
   -13.9850 -13.9850 -13.9690 -13.9690 -13.9269 -13.9269 -13.9165 -13.9165
    -7.9474  -7.4858  -7.4606  -7.4606  -7.2138  -7.1713  -7.1291  -7.1291
    -7.1150  -7.1150  -6.9989  -6.9989  -6.9506  -6.9506  -6.7728  -6.7728
    -6.7703  -6.7703  -6.5138  -6.5138  -6.2406  -6.2406  -6.1189  -6.1189
    -6.0896  -6.0896  -6.0612  -6.0397  -5.8400  -5.8400  -5.8110  -5.8110
    -5.7824  -5.7684  -5.4761  -5.4761  -5.4312  -5.4312  -5.3557  -5.3557
    -5.2243  -5.0832  -5.0832  -5.0088  -4.9242  -4.9242  -4.9180  -4.7918
    -4.7807  -4.7807  -4.7724  -4.7724  -4.6223  -4.6076  -4.6076  -4.6047
    -4.6047  -4.5940  -4.5940  -4.5162  -4.5162  -4.3745  -4.3745  -4.3261
    -4.2992  -4.2992  -4.1354  -4.1115  -4.1115  -3.9730  -3.9730  -3.9243
    -3.6862  -3.6862  -3.4825  -3.3852  -3.2899  -3.2281  -3.1729  -3.1729
    -3.1711  -3.1711  -3.1325  -3.1325  -3.1236  -2.9860  -2.9860  -2.9409
    -2.9409  -2.8980  -2.8980  -2.8608  -2.7860  -2.7825  -2.7825  -2.7639
    -2.7639  -2.7276  -2.7052  -2.6765  -2.6765  -2.6066  -2.6066  -2.5885
    -2.5885  -2.4142  -2.4142  -2.3934  -2.3885  -2.3570  -2.3570  -2.1295
    -0.4711  -0.4711  -0.3046  -0.3046  -0.3017  -0.2242  -0.2242  -0.0221
    -0.0221   0.1395   0.1395   0.1673   0.1788   0.1788   0.2025   0.2025
     0.2159   0.2266   0.2266   0.2449   0.2683   0.3417   0.3417   0.4278
     0.4278   0.5205   0.5205   0.6429   0.7143   0.7325   0.7325   0.7486

          k = 0.0000 0.3849 0.0000 (287830 PWs)   bands (ev):

   -56.3832 -56.3695 -56.3671 -56.3648 -56.3648 -56.3614 -56.3614 -56.3605
   -56.3568 -56.3568 -56.3529 -56.3528 -56.3521 -56.3521 -56.3434 -56.3434
   -32.7793 -32.7793 -32.7690 -32.7637 -32.7637 -32.7637 -32.7637 -32.7271
   -32.7271 -32.7245 -32.6950 -32.6950 -32.6789 -32.6789 -32.6283 -32.6282
   -32.6236 -32.6235 -32.6010 -32.6010 -32.5854 -32.5848 -32.5848 -32.5643
   -32.5592 -32.5592 -32.5538 -32.5385 -32.5385 -32.5266 -32.5218 -32.5087
   -32.4641 -32.4558 -32.4474 -32.4474 -32.4317 -32.4317 -32.4250 -32.4189
   -32.4189 -32.4107 -32.4066 -32.4065 -32.4056 -32.4056 -32.3999 -32.3998
   -15.0366 -14.8329 -14.6578 -14.6578 -14.3831 -14.3831 -14.2865 -14.1713
   -14.1713 -14.1067 -14.1067 -14.1001 -14.0944 -14.0944 -14.0920 -14.0836
   -14.0776 -14.0602 -14.0425 -14.0425 -14.0243 -14.0242 -14.0018 -14.0018
   -13.9894 -13.9894 -13.9840 -13.9839 -13.9013 -13.9013 -13.8746 -13.8746
    -7.8240  -7.4511  -7.4117  -7.3624  -7.3623  -7.2787  -7.1272  -7.1272
    -7.0999  -7.0999  -7.0673  -7.0673  -7.0525  -7.0525  -6.9161  -6.9161
    -6.6147  -6.6147  -6.4415  -6.4415  -6.2167  -6.2167  -6.0249  -6.0249
    -5.9360  -5.9224  -5.9005  -5.9005  -5.8493  -5.8493  -5.7612  -5.7612
    -5.7302  -5.7302  -5.7292  -5.7056  -5.7056  -5.6079  -5.5202  -5.5202
    -5.4993  -5.2794  -5.2794  -5.1621  -4.8591  -4.8591  -4.8134  -4.7305
    -4.7049  -4.7049  -4.6566  -4.6566  -4.6062  -4.6062  -4.5554  -4.5553
    -4.5069  -4.5069  -4.4939  -4.4141  -4.3127  -4.2779  -4.2779  -4.2493
    -4.2493  -4.2138  -4.2138  -4.1250  -4.1250  -4.0739  -4.0739  -3.7457
    -3.7457  -3.7113  -3.6883  -3.3628  -3.3451  -3.3451  -3.3420  -3.2081
    -3.2081  -3.1443  -3.1149  -3.1149  -3.1124  -3.1124  -3.0777  -3.0502
    -3.0282  -3.0282  -2.8803  -2.8532  -2.8532  -2.8360  -2.8360  -2.6435
    -2.6435  -2.6130  -2.6130  -2.5686  -2.5686  -2.5664  -2.5224  -2.4987
    -2.4987  -2.4784  -2.4325  -2.4325  -2.3023  -2.2392  -2.2392  -2.1951
    -0.6858  -0.6858  -0.2540  -0.2540  -0.2191  -0.2191  -0.2168  -0.0191
    -0.0191   0.0285   0.0285   0.0658   0.1477   0.1477   0.1770   0.2084
     0.2084   0.2111   0.2622   0.2622   0.2835   0.2835   0.3831   0.3831
     0.4245   0.5560   0.5560   0.5801   0.5801   0.6426   0.8430   0.8924

          k = 0.0000-0.5774 0.0000 (287882 PWs)   bands (ev):

   -56.3766 -56.3766 -56.3636 -56.3636 -56.3616 -56.3616 -56.3589 -56.3589
   -56.3588 -56.3588 -56.3546 -56.3546 -56.3546 -56.3546 -56.3429 -56.3429
   -32.7726 -32.7726 -32.7726 -32.7726 -32.7653 -32.7653 -32.7500 -32.7500
   -32.7119 -32.7119 -32.7119 -32.7119 -32.6832 -32.6832 -32.6231 -32.6231
   -32.6031 -32.6031 -32.6031 -32.6031 -32.5782 -32.5782 -32.5782 -32.5782
   -32.5598 -32.5598 -32.5527 -32.5527 -32.5398 -32.5398 -32.5145 -32.5144
   -32.4607 -32.4607 -32.4481 -32.4481 -32.4255 -32.4255 -32.4254 -32.4254
   -32.4171 -32.4171 -32.4061 -32.4061 -32.4061 -32.4060 -32.3989 -32.3989
   -14.9476 -14.9476 -14.6705 -14.6705 -14.2781 -14.2781 -14.2781 -14.2781
   -14.1721 -14.1721 -14.1057 -14.1057 -14.0889 -14.0889 -14.0761 -14.0761
   -14.0733 -14.0733 -14.0733 -14.0733 -14.0042 -14.0042 -14.0042 -14.0041
   -13.9956 -13.9956 -13.9955 -13.9955 -13.8921 -13.8921 -13.8603 -13.8603
    -7.6349  -7.6349  -7.3813  -7.3813  -7.2197  -7.2197  -7.2197  -7.2197
    -7.1255  -7.1255  -7.0815  -7.0815  -7.0815  -7.0815  -6.9659  -6.9659
    -6.5246  -6.5246  -6.3351  -6.3351  -6.3351  -6.3351  -5.9096  -5.9096
    -5.9096  -5.9096  -5.8539  -5.8539  -5.8405  -5.8405  -5.7976  -5.7976
    -5.7375  -5.7375  -5.6639  -5.6639  -5.6639  -5.6639  -5.5606  -5.5606
    -5.5605  -5.5605  -5.3787  -5.3787  -4.8333  -4.8333  -4.6432  -4.6432
    -4.6341  -4.6341  -4.6341  -4.6341  -4.6302  -4.6302  -4.6213  -4.6213
    -4.6213  -4.6213  -4.4860  -4.4860  -4.3208  -4.3208  -4.1909  -4.1909
    -4.1077  -4.1077  -4.0008  -4.0008  -3.9773  -3.9773  -3.9773  -3.9773
    -3.6420  -3.6420  -3.6420  -3.6420  -3.5105  -3.5105  -3.4206  -3.4206
    -3.2573  -3.2573  -3.0758  -3.0758  -3.0758  -3.0758  -2.9976  -2.9976
    -2.9583  -2.9583  -2.9583  -2.9583  -2.8292  -2.8292  -2.8223  -2.8223
    -2.5731  -2.5731  -2.5731  -2.5731  -2.5249  -2.5249  -2.5249  -2.5249
    -2.4462  -2.4462  -2.3297  -2.3297  -2.3221  -2.3221  -2.1593  -2.1593
    -0.7762  -0.7762  -0.2240  -0.2240  -0.2240  -0.2239  -0.0907  -0.0906
    -0.0533  -0.0533  -0.0533  -0.0533   0.1966   0.1966   0.2109   0.2109
     0.2326   0.2326   0.2326   0.2326   0.3209   0.3209   0.3209   0.3209
     0.5045   0.5045   0.5636   0.5636   0.6589   0.6589   0.7139   0.7139

          k = 0.1667 0.2887 0.0000 (287748 PWs)   bands (ev):

   -56.3848 -56.3674 -56.3674 -56.3657 -56.3657 -56.3656 -56.3588 -56.3588
   -56.3580 -56.3579 -56.3523 -56.3523 -56.3508 -56.3479 -56.3479 -56.3418
   -32.7832 -32.7755 -32.7754 -32.7658 -32.7658 -32.7594 -32.7476 -32.7476
   -32.7227 -32.7097 -32.7097 -32.6880 -32.6623 -32.6622 -32.6518 -32.6518
   -32.6139 -32.6139 -32.6062 -32.6052 -32.6052 -32.5860 -32.5704 -32.5704
   -32.5539 -32.5539 -32.5491 -32.5490 -32.5279 -32.5279 -32.5209 -32.5076
   -32.4648 -32.4523 -32.4523 -32.4399 -32.4399 -32.4288 -32.4288 -32.4193
[...]
    -2.4036  -2.3557  -2.3028  -2.3028  -2.3028  -2.2293  -2.2293  -2.2293
    -0.9855  -0.4462  -0.4461  -0.4461  -0.0838  -0.0838  -0.0838  -0.0838
    -0.0838  -0.0838  -0.0346  -0.0346  -0.0346   0.1782   0.1782   0.1782
     0.1782   0.1782   0.1782   0.3332   0.3332   0.3332   0.5491   0.5491
     0.5491   0.6018   0.6018   0.6018   0.6278   0.6278   0.6278   0.6911

 ------ SPIN DOWN ----------


          k = 0.0000 0.0000 0.0000 (287679 PWs)   bands (ev):

   -55.4778 -55.4778 -55.4778 -55.4777 -55.4777 -55.4777 -55.4664 -55.4662
   -55.4662 -55.4662 -55.4661 -55.4661 -55.4661 -55.4438 -55.4438 -55.4437
   -31.7429 -31.7428 -31.7428 -31.6758 -31.6758 -31.6757 -31.6757 -31.6757
   -31.6757 -31.5929 -31.5929 -31.5929 -31.5929 -31.5929 -31.5929 -31.5775
   -31.5565 -31.5565 -31.5565 -31.5565 -31.5565 -31.5564 -31.5464 -31.5464
   -31.5464 -31.5463 -31.5463 -31.5463 -31.5290 -31.5289 -31.5289 -31.5112
   -31.5112 -31.5112 -31.5111 -31.5111 -31.5111 -31.5104 -31.5104 -31.5103
   -31.4955 -31.4955 -31.4955 -31.4955 -31.4955 -31.4955 -31.4665 -31.4665
   -15.3049 -14.6018 -14.6018 -14.6018 -14.6018 -14.6018 -14.6018 -14.3591
   -14.1855 -14.1855 -14.1855 -14.1854 -14.1854 -14.1854 -13.9356 -13.9356
   -13.9355 -13.9073 -13.9073 -13.9073 -13.9073 -13.9073 -13.9073 -13.6993
   -13.6992 -13.6992 -13.6992 -13.6992 -13.6992 -13.6870 -13.6870 -13.6870
    -5.9712  -5.9712  -5.9712  -5.8790  -5.8790  -5.8790  -5.8790  -5.8790
    -5.8790  -5.8513  -5.8513  -5.8513  -5.3557  -5.3030  -5.3030  -5.3030
    -5.3030  -5.3030  -5.3030  -4.9267  -4.9267  -4.9267  -4.9267  -4.9267
    -4.9267  -4.5492  -4.5492  -4.5492  -4.5492  -4.5492  -4.5492  -4.2792
    -4.2792  -4.2792  -4.2792  -4.2792  -4.2792  -4.2686  -4.2686  -4.2686
    -4.2686  -4.2686  -4.2686  -4.2256  -4.2256  -4.2256  -4.2256  -4.2256
    -4.2256  -4.2156  -4.2156  -4.2156  -4.0851  -4.0851  -4.0851  -3.6623
    -3.6623  -3.6623  -3.6623  -3.6623  -3.6623  -3.4098  -3.4098  -3.4098
    -3.4098  -3.4098  -3.4098  -3.0906  -3.0801  -3.0801  -3.0801  -2.9277
    -2.9276  -2.9276  -2.9276  -2.9276  -2.9276  -2.7263  -2.7263  -2.7263
    -2.7262  -2.7262  -2.7262  -2.4288  -2.4288  -2.2919  -2.2919  -2.2919
    -2.1318  -2.1318  -2.1318  -2.1317  -2.1317  -2.1317  -2.0395  -2.0395
     0.6182   0.6182   0.6182   1.1225   1.1225   1.1225   1.1225   1.1225
     1.1226   1.1247   1.1247   1.1247   1.1247   1.1247   1.1247   1.5333
     1.5333   1.6114   1.6114   1.6114   1.6114   1.6114   1.6114   1.8346
     1.9815   1.9815   1.9815   1.9815   1.9815   1.9815   2.4384   2.4384
     2.4384   2.5605   2.5605   2.5605   2.5605   2.5605   2.5605   2.7527
     2.7527   2.7527   2.7527   2.7527   2.7527   2.7814   2.7814   2.7814

          k = 0.0000 0.1925 0.0000 (287730 PWs)   bands (ev):

   -55.4793 -55.4791 -55.4791 -55.4760 -55.4760 -55.4732 -55.4676 -55.4676
   -55.4676 -55.4651 -55.4651 -55.4647 -55.4646 -55.4457 -55.4453 -55.4453
   -31.7390 -31.7390 -31.7374 -31.6813 -31.6812 -31.6749 -31.6749 -31.6723
   -31.6723 -31.6298 -31.6122 -31.6122 -31.5765 -31.5765 -31.5765 -31.5699
   -31.5699 -31.5575 -31.5549 -31.5536 -31.5536 -31.5501 -31.5501 -31.5425
   -31.5425 -31.5414 -31.5414 -31.5375 -31.5302 -31.5302 -31.5277 -31.5165
   -31.5165 -31.5117 -31.5111 -31.5111 -31.5105 -31.5104 -31.5070 -31.5070
   -31.5037 -31.5007 -31.5007 -31.4924 -31.4924 -31.4876 -31.4703 -31.4674
   -15.2838 -14.8016 -14.6903 -14.6903 -14.4829 -14.4829 -14.3882 -14.3542
   -14.2368 -14.2080 -14.2080 -14.1537 -14.1537 -14.1291 -13.9580 -13.9580
   -13.9456 -13.9337 -13.9336 -13.9092 -13.9092 -13.8656 -13.8656 -13.8456
   -13.8456 -13.7226 -13.6984 -13.6984 -13.6878 -13.6878 -13.5831 -13.5831
    -6.0720  -6.0720  -5.9401  -5.9401  -5.9152  -5.8775  -5.8775  -5.8535
    -5.8535  -5.8068  -5.6334  -5.6334  -5.3743  -5.3743  -5.3436  -5.3428
    -5.3428  -5.2247  -5.2247  -5.0487  -4.9784  -4.9784  -4.8851  -4.8727
    -4.8654  -4.8654  -4.7177  -4.7177  -4.5880  -4.4445  -4.4445  -4.3771
    -4.3771  -4.3666  -4.3666  -4.2976  -4.2976  -4.2648  -4.2648  -4.2574
    -4.2574  -4.2419  -4.2278  -4.2278  -4.2170  -4.2170  -4.2130  -4.1959
    -4.1959  -4.0962  -4.0962  -4.0648  -4.0098  -4.0098  -3.9312  -3.9312
    -3.7537  -3.6129  -3.6129  -3.6034  -3.5608  -3.5607  -3.4232  -3.4232
    -3.3329  -3.3329  -3.1981  -3.1672  -3.0735  -3.0735  -3.0725  -3.0676
    -3.0676  -2.9409  -2.9409  -2.8451  -2.7923  -2.7923  -2.7160  -2.7160
    -2.5924  -2.5816  -2.5816  -2.4724  -2.4020  -2.3851  -2.3851  -2.2856
    -2.1998  -2.1998  -2.1676  -2.1531  -2.1531  -2.1390  -2.1006  -2.0414
     0.6198   0.6589   0.6589   0.9205   1.0316   1.0316   1.0556   1.0556
     1.0913   1.0914   1.1996   1.1996   1.2498   1.2498   1.3686   1.4351
     1.4808   1.4808   1.4857   1.5814   1.6763   1.6763   1.8212   1.8431
     1.8994   1.8994   2.0339   2.0339   2.0421   2.0421   2.3544   2.4141
     2.4669   2.4669   2.5049   2.5050   2.5564   2.5578   2.5578   2.6853
     2.6853   2.6926   2.6926   2.7208   2.7344   2.7362   2.8004   2.8382

          k = 0.0000 0.3849 0.0000 (287830 PWs)   bands (ev):

   -55.4799 -55.4799 -55.4780 -55.4739 -55.4739 -55.4707 -55.4695 -55.4695
   -55.4662 -55.4645 -55.4645 -55.4606 -55.4605 -55.4508 -55.4494 -55.4493
   -31.7281 -31.7281 -31.7217 -31.6952 -31.6951 -31.6721 -31.6721 -31.6655
   -31.6635 -31.6635 -31.6319 -31.6319 -31.5801 -31.5801 -31.5736 -31.5653
   -31.5653 -31.5625 -31.5525 -31.5524 -31.5470 -31.5469 -31.5355 -31.5355
   -31.5338 -31.5338 -31.5292 -31.5292 -31.5289 -31.5262 -31.5242 -31.5226
   -31.5226 -31.5155 -31.5117 -31.5110 -31.5109 -31.5106 -31.5105 -31.5081
   -31.5081 -31.5044 -31.5044 -31.4910 -31.4910 -31.4817 -31.4805 -31.4701
   -15.2211 -14.9762 -14.7446 -14.7446 -14.3395 -14.3390 -14.3390 -14.2804
   -14.2215 -14.2215 -14.1757 -14.1132 -14.1132 -14.0717 -14.0122 -14.0122
   -14.0094 -14.0094 -13.9745 -13.9285 -13.9285 -13.9144 -13.9144 -13.8381
   -13.8381 -13.8250 -13.6962 -13.6962 -13.6901 -13.6900 -13.5084 -13.5084
    -6.1946  -6.1946  -5.8731  -5.8731  -5.8592  -5.8592  -5.8494  -5.8494
    -5.7515  -5.6763  -5.5350  -5.5350  -5.3637  -5.3637  -5.3546  -5.3546
    -5.3069  -5.1989  -5.1617  -5.1581  -5.1066  -5.1066  -5.0111  -5.0111
    -4.8955  -4.8955  -4.8448  -4.8448  -4.5948  -4.5948  -4.5568  -4.4739
    -4.4739  -4.3168  -4.2553  -4.2553  -4.2403  -4.2403  -4.2264  -4.2263
    -4.2213  -4.2212  -4.2130  -4.2130  -4.1905  -4.1905  -4.1732  -4.1732
    -4.1283  -4.1283  -4.0722  -4.0722  -4.0045  -3.8944  -3.8932  -3.8932
    -3.8438  -3.8438  -3.7705  -3.5562  -3.5562  -3.3556  -3.2986  -3.2986
    -3.2690  -3.1779  -3.1779  -3.0524  -3.0523  -3.0487  -2.9824  -2.9824
    -2.9799  -2.9751  -2.9751  -2.9386  -2.6901  -2.6901  -2.6587  -2.6587
    -2.6321  -2.6321  -2.5939  -2.4678  -2.4132  -2.4003  -2.4003  -2.3773
    -2.3773  -2.3683  -2.2674  -2.2115  -2.2115  -2.2047  -2.0760  -2.0473
     0.6332   0.7615   0.7615   0.7706   0.9862   0.9862   1.0064   1.0064
     1.0080   1.0080   1.2652   1.2652   1.3277   1.3411   1.3411   1.3668
     1.3668   1.3850   1.6185   1.7040   1.7040   1.7151   1.8125   1.8125
     1.8535   2.0300   2.0766   2.0766   2.1304   2.1794   2.1794   2.3386
     2.4046   2.4046   2.4217   2.4970   2.4970   2.5031   2.5031   2.5387
     2.6197   2.6197   2.6876   2.6876   2.7239   2.7724   2.8738   2.8738

          k = 0.0000-0.5774 0.0000 (287882 PWs)   bands (ev):

   -55.4801 -55.4801 -55.4746 -55.4746 -55.4717 -55.4717 -55.4716 -55.4716
   -55.4643 -55.4643 -55.4582 -55.4582 -55.4550 -55.4550 -55.4550 -55.4549
   -31.7124 -31.7124 -31.7123 -31.7123 -31.6970 -31.6970 -31.6706 -31.6706
   -31.6497 -31.6497 -31.6497 -31.6497 -31.5841 -31.5841 -31.5689 -31.5689
   -31.5613 -31.5613 -31.5532 -31.5532 -31.5397 -31.5397 -31.5396 -31.5396
   -31.5292 -31.5292 -31.5291 -31.5291 -31.5214 -31.5214 -31.5187 -31.5187
   -31.5176 -31.5176 -31.5176 -31.5176 -31.5108 -31.5108 -31.5107 -31.5107
   -31.5035 -31.5035 -31.5005 -31.5005 -31.4906 -31.4906 -31.4746 -31.4745
   -15.1177 -15.1177 -14.7630 -14.7630 -14.3149 -14.3149 -14.2259 -14.2259
   -14.1778 -14.1778 -14.1778 -14.1778 -14.0652 -14.0652 -14.0652 -14.0652
   -14.0182 -14.0182 -13.9818 -13.9818 -13.9215 -13.9215 -13.9214 -13.9214
   -13.8285 -13.8285 -13.6931 -13.6931 -13.6931 -13.6931 -13.4825 -13.4825
    -6.2366  -6.2366  -5.8665  -5.8665  -5.8665  -5.8665  -5.7078  -5.7078
    -5.7078  -5.7078  -5.4926  -5.4926  -5.4689  -5.4689  -5.3554  -5.3554
    -5.2450  -5.2450  -5.1082  -5.1082  -5.1082  -5.1082  -5.0222  -5.0222
    -4.9597  -4.9597  -4.9597  -4.9597  -4.5711  -4.5711  -4.5710  -4.5710
    -4.4291  -4.4291  -4.2299  -4.2299  -4.2286  -4.2286  -4.2286  -4.2286
    -4.1758  -4.1758  -4.1758  -4.1758  -4.1490  -4.1490  -4.1281  -4.1281
    -4.1235  -4.1235  -4.1234  -4.1234  -4.0820  -4.0820  -3.9055  -3.9055
    -3.7793  -3.7793  -3.6386  -3.6386  -3.6052  -3.6052  -3.2211  -3.2211
    -3.0170  -3.0170  -3.0170  -3.0170  -3.0054  -3.0054  -2.9622  -2.9622
    -2.9622  -2.9621  -2.8079  -2.8079  -2.7714  -2.7714  -2.6501  -2.6501
    -2.6501  -2.6501  -2.6429  -2.6429  -2.6429  -2.6429  -2.3857  -2.3857
    -2.3248  -2.3248  -2.2419  -2.2419  -2.2393  -2.2393  -2.0584  -2.0584
     0.6776   0.6777   0.8880   0.8880   0.8880   0.8880   0.9826   0.9826
     0.9826   0.9826   1.2812   1.2812   1.2917   1.2917   1.3137   1.3137
     1.4176   1.4176   1.7435   1.7435   1.7436   1.7436   1.8013   1.8013
     1.9082   1.9082   2.0874   2.0874   2.2087   2.2087   2.3439   2.3439
     2.3747   2.3748   2.3748   2.3748   2.4036   2.4036   2.5085   2.5085
     2.6130   2.6130   2.6130   2.6130   2.7413   2.7414   2.8841   2.8841

          k = 0.1667 0.2887 0.0000 (287748 PWs)   bands (ev):

   -55.4792 -55.4792 -55.4782 -55.4782 -55.4709 -55.4702 -55.4702 -55.4697
   -55.4657 -55.4648 -55.4647 -55.4624 -55.4624 -55.4488 -55.4488 -55.4477
   -31.7328 -31.7286 -31.7286 -31.6863 -31.6863 -31.6818 -31.6818 -31.6647
   -31.6589 -31.6481 -31.6481 -31.5982 -31.5981 -31.5861 -31.5746 -31.5624
   -31.5624 -31.5582 -31.5582 -31.5442 -31.5441 -31.5434 -31.5434 -31.5390
   -31.5390 -31.5351 -31.5327 -31.5327 -31.5305 -31.5277 -31.5277 -31.5230
   -31.5161 -31.5161 -31.5130 -31.5129 -31.5093 -31.5090 -31.5089 -31.5073
   -31.5072 -31.5041 -31.4994 -31.4993 -31.4847 -31.4847 -31.4779 -31.4692
   -15.2419 -14.8780 -14.8780 -14.5483 -14.5483 -14.3444 -14.2689 -14.2689
   -14.2559 -14.2559 -14.1699 -14.1698 -14.0961 -14.0961 -14.0183 -14.0133
   -13.9585 -13.9585 -13.9535 -13.9535 -13.9184 -13.8726 -13.8726 -13.8356
   -13.8356 -13.8329 -13.7575 -13.7574 -13.6554 -13.5907 -13.5907 -13.4998
    -6.2140  -6.0502  -6.0502  -5.9053  -5.9025  -5.8306  -5.8306  -5.7643
    -5.7643  -5.6531  -5.6531  -5.4800  -5.4800  -5.3469  -5.3469  -5.3382
    -5.3192  -5.2588  -5.0964  -5.0964  -5.0496  -5.0496  -5.0404  -4.9842
    -4.9842  -4.8894  -4.8894  -4.6026  -4.6026  -4.5458  -4.5458  -4.4872
    -4.3470  -4.3470  -4.3271  -4.2932  -4.2747  -4.2747  -4.2684  -4.2684
    -4.2506  -4.2506  -4.2184  -4.2184  -4.1954  -4.1715  -4.1715  -4.1678
    -4.1364  -4.0801  -4.0628  -4.0628  -4.0517  -4.0517  -3.7715  -3.7715
    -3.7535  -3.7535  -3.7281  -3.7281  -3.5376  -3.5376  -3.2959  -3.2047
    -3.2047  -3.1901  -3.1608  -3.1608  -3.0708  -3.0692  -3.0692  -3.0629
    -3.0517  -3.0517  -2.8404  -2.8403  -2.8376  -2.8376  -2.6526  -2.6448
    -2.5673  -2.5206  -2.5206  -2.4553  -2.4553  -2.3692  -2.3692  -2.3627
    -2.3240  -2.2914  -2.2914  -2.2496  -2.2496  -2.1131  -2.1131  -2.0469
     0.6626   0.6626   0.7632   0.8614   0.8614   0.9932   0.9932   1.0439
     1.1374   1.1374   1.1584   1.1584   1.3006   1.3398   1.3398   1.4086
     1.4940   1.4940   1.4996   1.4996   1.6756   1.7560   1.8533   1.8926
     1.8926   2.0034   2.0034   2.0351   2.1380   2.1380   2.2885   2.2885
     2.4004   2.4004   2.4412   2.4412   2.4926   2.4927   2.5717   2.5891
     2.6422   2.7016   2.7016   2.7531   2.7531   2.7798   2.8247   2.8247

          k = 0.1667 0.4811 0.0000 (287831 PWs)   bands (ev):

   -55.4794 -55.4790 -55.4769 -55.4765 -55.4740 -55.4733 -55.4676 -55.4662
   -55.4657 -55.4627 -55.4612 -55.4598 -55.4577 -55.4551 -55.4539 -55.4523
   -31.7201 -31.7142 -31.7088 -31.7033 -31.6973 -31.6884 -31.6812 -31.6759
   -31.6642 -31.6555 -31.6412 -31.6204 -31.5982 -31.5902 -31.5708 -31.5674
   -31.5652 -31.5599 -31.5522 -31.5455 -31.5426 -31.5373 -31.5357 -31.5341
   -31.5301 -31.5300 -31.5273 -31.5265 -31.5246 -31.5231 -31.5216 -31.5188
   -31.5178 -31.5166 -31.5165 -31.5153 -31.5151 -31.5142 -31.5084 -31.5082
   -31.5077 -31.5052 -31.5026 -31.4990 -31.4929 -31.4835 -31.4781 -31.4729
   -15.1588 -15.0363 -14.9167 -14.5816 -14.3824 -14.3247 -14.2951 -14.2653
   -14.2018 -14.1778 -14.1312 -14.1231 -14.0699 -14.0646 -14.0554 -14.0399
   -14.0086 -13.9905 -13.9835 -13.9587 -13.9575 -13.9014 -13.8880 -13.8853
   -13.8530 -13.8163 -13.8153 -13.7895 -13.6276 -13.6057 -13.5337 -13.4560
    -6.2885  -6.1395  -6.0104  -5.9596  -5.8043  -5.7241  -5.6945  -5.6858
    -5.6549  -5.6200  -5.5920  -5.5350  -5.5228  -5.4277  -5.3481  -5.3248
    -5.2698  -5.2645  -5.2255  -5.1952  -5.1603  -5.1365  -5.1205  -5.0262
    -4.9054  -4.8443  -4.7979  -4.7515  -4.5925  -4.5415  -4.5354  -4.5176
    -4.4875  -4.4438  -4.4021  -4.3636  -4.3215  -4.2952  -4.2227  -4.1999
    -4.1842  -4.1785  -4.1757  -4.1724  -4.1687  -4.1637  -4.1620  -4.1207
    -4.1202  -4.1034  -4.0654  -4.0457  -3.9969  -3.9913  -3.9298  -3.8994
    -3.8994  -3.8205  -3.7580  -3.5030  -3.4069  -3.3862  -3.2949  -3.2695
    -3.1459  -3.0729  -3.0705  -3.0704  -3.0065  -3.0014  -2.9977  -2.9700
    -2.9354  -2.9184  -2.8864  -2.7934  -2.7882  -2.7797  -2.7771  -2.7456
    -2.6529  -2.5950  -2.5487  -2.5084  -2.5021  -2.4616  -2.3886  -2.3677
    -2.3657  -2.3390  -2.3358  -2.3224  -2.2977  -2.1438  -2.0821  -2.0602
     0.6854   0.7471   0.7650   0.8639   0.8870   0.8966   0.9139   1.0291
     1.0585   1.0964   1.1704   1.2473   1.2555   1.2825   1.3166   1.3647
     1.3796   1.5415   1.5825   1.6292   1.7165   1.8373   1.8461   1.9259
     1.9614   2.0269   2.0607   2.0998   2.1765   2.1951   2.2744   2.2771
     2.3148   2.3382   2.3537   2.3750   2.3758   2.4325   2.4646   2.5121
     2.5310   2.7194   2.7327   2.7500   2.7700   2.7844   2.8099   2.8282

          k = 0.3333 0.5774 0.0000 (287970 PWs)   bands (ev):

   -55.4774 -55.4774 -55.4773 -55.4765 -55.4764 -55.4764 -55.4668 -55.4605
   -55.4605 -55.4605 -55.4605 -55.4604 -55.4604 -55.4567 -55.4566 -55.4566
   -31.7060 -31.7060 -31.7060 -31.6924 -31.6924 -31.6924 -31.6924 -31.6923
   -31.6923 -31.6455 -31.6162 -31.6162 -31.6162 -31.6086 -31.5661 -31.5661
   -31.5661 -31.5540 -31.5540 -31.5540 -31.5380 -31.5380 -31.5379 -31.5241
   -31.5241 -31.5241 -31.5240 -31.5240 -31.5240 -31.5200 -31.5200 -31.5200
   -31.5199 -31.5199 -31.5199 -31.5112 -31.5112 -31.5112 -31.5085 -31.5084
   -31.5084 -31.5066 -31.5066 -31.5066 -31.5020 -31.4774 -31.4774 -31.4774
   -15.0564 -15.0564 -15.0564 -14.3971 -14.3971 -14.3970 -14.3000 -14.3000
   -14.3000 -14.1264 -14.1264 -14.1264 -14.0016 -14.0016 -14.0016 -14.0016
   -14.0016 -14.0016 -13.9421 -13.9421 -13.9421 -13.9421 -13.9421 -13.9421
   -13.8751 -13.8751 -13.8751 -13.8073 -13.5743 -13.5743 -13.5743 -13.4380
    -6.3211  -6.0571  -6.0571  -6.0571  -5.6962  -5.6962  -5.6962  -5.5082
    -5.5082  -5.5082  -5.5082  -5.5082  -5.5082  -5.4497  -5.4497  -5.4497
    -5.4497  -5.4497  -5.4497  -5.2076  -5.2076  -5.2076  -4.9597  -4.8038
    -4.7929  -4.7929  -4.7929  -4.6806  -4.6806  -4.6805  -4.4723  -4.4723
    -4.4723  -4.4064  -4.4064  -4.4064  -4.4064  -4.4064  -4.4064  -4.1884
    -4.1884  -4.1884  -4.1433  -4.1433  -4.1432  -4.1234  -4.1234  -4.1234
    -4.0967  -4.0592  -4.0592  -4.0592  -4.0591  -4.0591  -4.0591  -4.0549
    -3.6975  -3.6975  -3.6975  -3.4164  -3.4164  -3.4164  -3.3068  -3.1054
    -3.1054  -3.1054  -3.0035  -3.0035  -3.0035  -2.9980  -2.9980  -2.9980
    -2.9095  -2.9095  -2.9095  -2.9095  -2.9095  -2.9095  -2.5643  -2.5642
    -2.5642  -2.5364  -2.5364  -2.5364  -2.5364  -2.5364  -2.5364  -2.4409
    -2.4409  -2.4409  -2.3035  -2.3035  -2.3035  -2.0926  -2.0926  -2.0926
     0.7931   0.7932   0.7932   0.7932   0.7932   0.7932   1.0399   1.0399
     1.0399   1.1415   1.1415   1.1415   1.2544   1.2544   1.2544   1.4034
     1.4777   1.4777   1.4777   1.7551   1.7551   1.7551   2.0084   2.0471
     2.0471   2.0471   2.1426   2.1426   2.1426   2.1426   2.1426   2.1426
     2.3553   2.3553   2.3553   2.3695   2.3695   2.3695   2.4056   2.4056
     2.4056   2.7365   2.7365   2.7365   2.9759   2.9759   2.9759   2.9759

     the Fermi energy is    -1.4187 ev

!    total energy              =  -11399.93329592 Ry

     total all-electron energy =   -277758.810072 Ry
     estimated scf accuracy    <       0.00000003 Ry
     smearing contrib. (-TS)   =       0.00053391 Ry
     internal energy E=F+TS    =  -11399.93382983 Ry

     The total energy is F=E-TS. E is the sum of the following terms:
     one-electron contribution =  -17216.45611254 Ry
     hartree contribution      =    8645.32171882 Ry
     xc contribution           =    -505.08156328 Ry
     ewald contribution        =    6590.29862696 Ry
     Hubbard energy            =       8.81588581 Ry
     one-center paw contrib.   =   -8922.83238561 Ry

     total magnetization       =    15.99 Bohr mag/cell
     absolute magnetization    =    38.26 Bohr mag/cell

     convergence has been achieved in  16 iterations

     Writing output data file ./tmp/adatom.save/
 
     init_run     :     50.90s CPU     52.51s WALL (       1 calls)
     electrons    :   1362.68s CPU   1372.40s WALL (       1 calls)

     Called by init_run:
     wfcinit      :     33.99s CPU     34.54s WALL (       1 calls)
     potinit      :      5.24s CPU      5.50s WALL (       1 calls)
     hinit0       :      7.27s CPU      7.68s WALL (       1 calls)

     Called by electrons:
     c_bands      :   1107.67s CPU   1111.91s WALL (      16 calls)
     sum_band     :    158.38s CPU    160.88s WALL (      16 calls)
     v_of_rho     :     15.68s CPU     16.09s WALL (      17 calls)
     newd         :     10.76s CPU     12.68s WALL (      17 calls)
     PAW_pot      :     13.02s CPU     13.23s WALL (      17 calls)
     mix_rho      :     58.24s CPU     58.70s WALL (      16 calls)

     Called by c_bands:
     init_us_2    :      7.55s CPU      7.60s WALL (     476 calls)
     cegterg      :   1081.59s CPU   1085.54s WALL (     225 calls)

     Called by *egterg:
     cdiaghg      :     81.63s CPU     82.00s WALL (    1360 calls)
     h_psi        :    659.12s CPU    662.11s WALL (    1374 calls)
     s_psi        :     56.17s CPU     56.22s WALL (    1388 calls)
     g_psi        :      2.11s CPU      2.12s WALL (    1135 calls)

     Called by h_psi:
     h_psi:calbec :     62.77s CPU     62.88s WALL (    1374 calls)
     vloc_psi     :    466.37s CPU    468.69s WALL (    1374 calls)
     add_vuspsi   :     55.65s CPU     55.84s WALL (    1374 calls)
     vhpsi        :     69.32s CPU     69.51s WALL (    1374 calls)

     General routines
     calbec       :     99.30s CPU     99.57s WALL (    3210 calls)
     fft          :      5.18s CPU      5.64s WALL (     419 calls)
     ffts         :     33.39s CPU     33.54s WALL (    9683 calls)
     fftw         :    507.71s CPU    510.14s WALL (  348850 calls)
     interpolate  :      0.62s CPU      0.64s WALL (      34 calls)
     davcio       :      0.02s CPU      0.93s WALL (      14 calls)
 
     Parallel routines

     Hubbard U routines
     new_ns       :      5.80s CPU      6.01s WALL (      16 calls)
     vhpsi        :     69.32s CPU     69.51s WALL (    1374 calls)
 
     PWSCF        :  23m47.58s CPU  24m 7.19s WALL

 
   This run was terminated on:  20: 1:33   5Apr2023            

=------------------------------------------------------------------------------=
   JOB DONE.
=------------------------------------------------------------------------------=
