 
             +---------------------------------------------------+
             |                                                   |
             |                   WANNIER90                       |
             |                                                   |
             +---------------------------------------------------+
             |                                                   |
             |        Welcome to the Maximally-Localized         |
             |        Generalized Wannier Functions code         |
             |            http://www.wannier.org                 |
             |                                                   |
             |                                                   |
             |  Wannier90 Developer Group:                       |
             |    Giovanni Pizzi    (EPFL)                       |
             |    Valerio Vitale    (Cambridge)                  |
             |    David Vanderbilt  (Rutgers University)         |
             |    Nicola Marzari    (EPFL)                       |
             |    Ivo Souza         (Universidad del Pais Vasco) |
             |    Arash A. Mostofi  (Imperial College London)    |
             |    Jonathan R. Yates (University of Oxford)       |
             |                                                   |
             |  For the full list of Wannier90 3.x authors,      |
             |  please check the code documentation and the      |
             |  README on the GitHub page of the code            |
             |                                                   |
             |                                                   |
             |  Please cite                                      |
             |                                                   |
             |  [ref] "Wannier90 as a community code:            |
             |        new features and applications",            |
             |        G. Pizzi et al., J. Phys. Cond. Matt. 32,  |
             |        165902 (2020).                             |
             |        http://doi.org/10.1088/1361-648X/ab51ff    |
             |                                                   |
             |  in any publications arising from the use of      |
             |  this code. For the method please cite            |
             |                                                   |
             |  [ref] "Maximally Localized Generalised Wannier   |
             |         Functions for Composite Energy Bands"     |
             |         N. Marzari and D. Vanderbilt              |
             |         Phys. Rev. B 56 12847 (1997)              |
             |                                                   |
             |  [ref] "Maximally Localized Wannier Functions     |
             |         for Entangled Energy Bands"               |
             |         I. Souza, N. Marzari and D. Vanderbilt    |
             |         Phys. Rev. B 65 035109 (2001)             |
             |                                                   |
             |                                                   |
             | Copyright (c) 1996-2020                           |
             |        The Wannier90 Developer Group and          |
             |        individual contributors                    |
             |                                                   |
             |      Release: 3.1.0        5th March    2020      |
             |                                                   |
             | This program is free software; you can            |
             | redistribute it and/or modify it under the terms  |
             | of the GNU General Public License as published by |
             | the Free Software Foundation; either version 2 of |
             | the License, or (at your option) any later version|
             |                                                   |
             | This program is distributed in the hope that it   |
             | will be useful, but WITHOUT ANY WARRANTY; without |
             | even the implied warranty of MERCHANTABILITY or   |
             | FITNESS FOR A PARTICULAR PURPOSE. See the GNU     |
             | General Public License for more details.          |
             |                                                   |
             | You should have received a copy of the GNU General|
             | Public License along with this program; if not,   |
             | write to the Free Software Foundation, Inc.,      |
             | 675 Mass Ave, Cambridge, MA 02139, USA.           |
             |                                                   |
             +---------------------------------------------------+
             |    Execution started on 12Jul2023 at 12:21:29     |
             +---------------------------------------------------+
 
 ******************************************************************************
 * -> Using CODATA 2006 constant values                                       *
 *    (http://physics.nist.gov/cuu/Constants/index.html)                      *
 * -> Using Bohr value from CODATA                                            *
 ******************************************************************************
 

 Running in parallel on  80 CPUs

 
                                    ------
                                    SYSTEM
                                    ------
 
                              Lattice Vectors (Ang)
                    a_1    13.784171   0.000000   0.000000
                    a_2    -6.892085  11.937442   0.000000
                    a_3     0.000000   0.000000  23.631430
 
                   Unit Cell Volume:    3888.49848  (Ang^3)
 
                        Reciprocal-Space Vectors (Ang^-1)
                    b_1     0.455826   0.263171   0.000000
                    b_2     0.000000   0.526343   0.000000
                    b_3     0.000000   0.000000   0.265883
  
 *----------------------------------------------------------------------------*
 |   Site       Fractional Coordinate          Cartesian Coordinate (Ang)     |
 +----------------------------------------------------------------------------+
 | Nb   1   0.00000   0.00000   0.07097   |    0.00000   0.00000   1.67715    |
 | Nb   2   0.25000   0.00000   0.07097   |    3.44604   0.00000   1.67715    |
 | Nb   3   0.50000   0.00000   0.07097   |    6.89209   0.00000   1.67715    |
 | Nb   4   0.75000   0.00000   0.07097   |   10.33813   0.00000   1.67715    |
 | Nb   5   0.75000   0.25000   0.07097   |    8.61511   2.98436   1.67715    |
 | Nb   6   0.75000   0.50000   0.07097   |    6.89209   5.96872   1.67715    |
 | Nb   7   0.75000   0.75000   0.07097   |    5.16906   8.95308   1.67715    |
 | Nb   8   0.50000   0.75000   0.07097   |    1.72302   8.95308   1.67715    |
 | Nb   9   0.25000   0.75000   0.07097   |   -1.72302   8.95308   1.67715    |
 | Nb  10   0.00000   0.75000   0.07097   |   -5.16906   8.95308   1.67715    |
 | Nb  11   0.50000   0.25000   0.07097   |    5.16906   2.98436   1.67715    |
 | Nb  12   0.50000   0.50000   0.07097   |    3.44604   5.96872   1.67715    |
 | Nb  13   0.25000   0.50000   0.07097   |    0.00000   5.96872   1.67715    |
 | Nb  14   0.25000   0.25000   0.07097   |    1.72302   2.98436   1.67715    |
 | Nb  15   0.00000   0.25000   0.07097   |   -1.72302   2.98436   1.67715    |
 | Nb  16   0.00000   0.50000   0.07097   |   -3.44604   5.96872   1.67715    |
 | Se   1   0.16667   0.08333   0.00000   |    1.72302   0.99479   0.00000    |
 | Se   2   0.16667   0.08333   0.14194   |    1.72302   0.99479   3.35430    |
 | Se   3   0.41667   0.08333   0.00000   |    5.16906   0.99479   0.00000    |
 | Se   4   0.41667   0.08333   0.14194   |    5.16906   0.99479   3.35430    |
 | Se   5   0.66667   0.08333   0.00000   |    8.61511   0.99479   0.00000    |
 | Se   6   0.66667   0.08333   0.14194   |    8.61511   0.99479   3.35430    |
 | Se   7   0.91667   0.08333   0.00000   |   12.06115   0.99479   0.00000    |
 | Se   8   0.91667   0.08333   0.14194   |   12.06115   0.99479   3.35430    |
 | Se   9   0.91667   0.33333   0.00000   |   10.33813   3.97915   0.00000    |
 | Se  10   0.91667   0.33333   0.14194   |   10.33813   3.97915   3.35430    |
 | Se  11   0.91667   0.58333   0.00000   |    8.61511   6.96351   0.00000    |
 | Se  12   0.91667   0.58333   0.14194   |    8.61511   6.96351   3.35430    |
 | Se  13   0.91667   0.83333   0.00000   |    6.89209   9.94787   0.00000    |
 | Se  14   0.91667   0.83333   0.14194   |    6.89209   9.94787   3.35430    |
 | Se  15   0.66667   0.83333   0.00000   |    3.44604   9.94787   0.00000    |
 | Se  16   0.66667   0.83333   0.14194   |    3.44604   9.94787   3.35430    |
 | Se  17   0.41667   0.83333   0.00000   |    0.00000   9.94787   0.00000    |
 | Se  18   0.41667   0.83333   0.14194   |    0.00000   9.94787   3.35430    |
 | Se  19   0.16667   0.83333   0.00000   |   -3.44604   9.94787   0.00000    |
 | Se  20   0.16667   0.83333   0.14194   |   -3.44604   9.94787   3.35430    |
 | Se  21   0.66667   0.33333   0.00000   |    6.89209   3.97915   0.00000    |
 | Se  22   0.66667   0.33333   0.14194   |    6.89209   3.97915   3.35430    |
 | Se  23   0.66667   0.58333   0.00000   |    5.16906   6.96351   0.00000    |
 | Se  24   0.66667   0.58333   0.14194   |    5.16906   6.96351   3.35430    |
 | Se  25   0.41667   0.58333   0.00000   |    1.72302   6.96351   0.00000    |
 | Se  26   0.41667   0.58333   0.14194   |    1.72302   6.96351   3.35430    |
 | Se  27   0.41667   0.33333   0.00000   |    3.44604   3.97915   0.00000    |
 | Se  28   0.41667   0.33333   0.14194   |    3.44604   3.97915   3.35430    |
 | Se  29   0.16667   0.33333   0.00000   |    0.00000   3.97915   0.00000    |
 | Se  30   0.16667   0.33333   0.14194   |    0.00000   3.97915   3.35430    |
 | Se  31   0.16667   0.58333   0.00000   |   -1.72302   6.96351   0.00000    |
 | Se  32   0.16667   0.58333   0.14194   |   -1.72302   6.96351   3.35430    |
 *----------------------------------------------------------------------------*
                                -----------
                                PROJECTIONS
                                -----------
  
 +----------------------------------------------------------------------------+
 |     Frac. Coord.   l mr  r        z-axis               x-axis          Z/a |
 +----------------------------------------------------------------------------+
 |  0.00  0.00  0.07  2  1  1  0.000  0.000  1.000  1.000  0.000  0.000   1.0 |
 |  0.00  0.00  0.07  2  2  1  0.000  0.000  1.000  1.000  0.000  0.000   1.0 |
 |  0.00  0.00  0.07  2  3  1  0.000  0.000  1.000  1.000  0.000  0.000   1.0 |
 |  0.00  0.00  0.07  2  4  1  0.000  0.000  1.000  1.000  0.000  0.000   1.0 |
 |  0.00  0.00  0.07  2  5  1  0.000  0.000  1.000  1.000  0.000  0.000   1.0 |
 |  0.25  0.00  0.07  2  1  1  0.000  0.000  1.000  1.000  0.000  0.000   1.0 |
 |  0.25  0.00  0.07  2  2  1  0.000  0.000  1.000  1.000  0.000  0.000   1.0 |
 |  0.25  0.00  0.07  2  3  1  0.000  0.000  1.000  1.000  0.000  0.000   1.0 |
 |  0.25  0.00  0.07  2  4  1  0.000  0.000  1.000  1.000  0.000  0.000   1.0 |
 |  0.25  0.00  0.07  2  5  1  0.000  0.000  1.000  1.000  0.000  0.000   1.0 |
 |  0.50  0.00  0.07  2  1  1  0.000  0.000  1.000  1.000  0.000  0.000   1.0 |
 |  0.50  0.00  0.07  2  2  1  0.000  0.000  1.000  1.000  0.000  0.000   1.0 |
 |  0.50  0.00  0.07  2  3  1  0.000  0.000  1.000  1.000  0.000  0.000   1.0 |
 |  0.50  0.00  0.07  2  4  1  0.000  0.000  1.000  1.000  0.000  0.000   1.0 |
 |  0.50  0.00  0.07  2  5  1  0.000  0.000  1.000  1.000  0.000  0.000   1.0 |
 |  0.75  0.00  0.07  2  1  1  0.000  0.000  1.000  1.000  0.000  0.000   1.0 |
 |  0.75  0.00  0.07  2  2  1  0.000  0.000  1.000  1.000  0.000  0.000   1.0 |
 |  0.75  0.00  0.07  2  3  1  0.000  0.000  1.000  1.000  0.000  0.000   1.0 |
 |  0.75  0.00  0.07  2  4  1  0.000  0.000  1.000  1.000  0.000  0.000   1.0 |
 |  0.75  0.00  0.07  2  5  1  0.000  0.000  1.000  1.000  0.000  0.000   1.0 |
 |  0.75  0.25  0.07  2  1  1  0.000  0.000  1.000  1.000  0.000  0.000   1.0 |
 |  0.75  0.25  0.07  2  2  1  0.000  0.000  1.000  1.000  0.000  0.000   1.0 |
 |  0.75  0.25  0.07  2  3  1  0.000  0.000  1.000  1.000  0.000  0.000   1.0 |
 |  0.75  0.25  0.07  2  4  1  0.000  0.000  1.000  1.000  0.000  0.000   1.0 |
 |  0.75  0.25  0.07  2  5  1  0.000  0.000  1.000  1.000  0.000  0.000   1.0 |
 |  0.75  0.50  0.07  2  1  1  0.000  0.000  1.000  1.000  0.000  0.000   1.0 |
 |  0.75  0.50  0.07  2  2  1  0.000  0.000  1.000  1.000  0.000  0.000   1.0 |
 |  0.75  0.50  0.07  2  3  1  0.000  0.000  1.000  1.000  0.000  0.000   1.0 |
 |  0.75  0.50  0.07  2  4  1  0.000  0.000  1.000  1.000  0.000  0.000   1.0 |
 |  0.75  0.50  0.07  2  5  1  0.000  0.000  1.000  1.000  0.000  0.000   1.0 |
 |  0.75  0.75  0.07  2  1  1  0.000  0.000  1.000  1.000  0.000  0.000   1.0 |
 |  0.75  0.75  0.07  2  2  1  0.000  0.000  1.000  1.000  0.000  0.000   1.0 |
 |  0.75  0.75  0.07  2  3  1  0.000  0.000  1.000  1.000  0.000  0.000   1.0 |
 |  0.75  0.75  0.07  2  4  1  0.000  0.000  1.000  1.000  0.000  0.000   1.0 |
 |  0.75  0.75  0.07  2  5  1  0.000  0.000  1.000  1.000  0.000  0.000   1.0 |
 |  0.50  0.75  0.07  2  1  1  0.000  0.000  1.000  1.000  0.000  0.000   1.0 |
 |  0.50  0.75  0.07  2  2  1  0.000  0.000  1.000  1.000  0.000  0.000   1.0 |
 |  0.50  0.75  0.07  2  3  1  0.000  0.000  1.000  1.000  0.000  0.000   1.0 |
 |  0.50  0.75  0.07  2  4  1  0.000  0.000  1.000  1.000  0.000  0.000   1.0 |
 |  0.50  0.75  0.07  2  5  1  0.000  0.000  1.000  1.000  0.000  0.000   1.0 |
 |  0.25  0.75  0.07  2  1  1  0.000  0.000  1.000  1.000  0.000  0.000   1.0 |
 |  0.25  0.75  0.07  2  2  1  0.000  0.000  1.000  1.000  0.000  0.000   1.0 |
 |  0.25  0.75  0.07  2  3  1  0.000  0.000  1.000  1.000  0.000  0.000   1.0 |
 |  0.25  0.75  0.07  2  4  1  0.000  0.000  1.000  1.000  0.000  0.000   1.0 |
 |  0.25  0.75  0.07  2  5  1  0.000  0.000  1.000  1.000  0.000  0.000   1.0 |
 |  0.00  0.75  0.07  2  1  1  0.000  0.000  1.000  1.000  0.000  0.000   1.0 |
 |  0.00  0.75  0.07  2  2  1  0.000  0.000  1.000  1.000  0.000  0.000   1.0 |
 |  0.00  0.75  0.07  2  3  1  0.000  0.000  1.000  1.000  0.000  0.000   1.0 |
 |  0.00  0.75  0.07  2  4  1  0.000  0.000  1.000  1.000  0.000  0.000   1.0 |
 |  0.00  0.75  0.07  2  5  1  0.000  0.000  1.000  1.000  0.000  0.000   1.0 |
 |  0.50  0.25  0.07  2  1  1  0.000  0.000  1.000  1.000  0.000  0.000   1.0 |
 |  0.50  0.25  0.07  2  2  1  0.000  0.000  1.000  1.000  0.000  0.000   1.0 |
 |  0.50  0.25  0.07  2  3  1  0.000  0.000  1.000  1.000  0.000  0.000   1.0 |
 |  0.50  0.25  0.07  2  4  1  0.000  0.000  1.000  1.000  0.000  0.000   1.0 |
 |  0.50  0.25  0.07  2  5  1  0.000  0.000  1.000  1.000  0.000  0.000   1.0 |
 |  0.50  0.50  0.07  2  1  1  0.000  0.000  1.000  1.000  0.000  0.000   1.0 |
 |  0.50  0.50  0.07  2  2  1  0.000  0.000  1.000  1.000  0.000  0.000   1.0 |
 |  0.50  0.50  0.07  2  3  1  0.000  0.000  1.000  1.000  0.000  0.000   1.0 |
 |  0.50  0.50  0.07  2  4  1  0.000  0.000  1.000  1.000  0.000  0.000   1.0 |
 |  0.50  0.50  0.07  2  5  1  0.000  0.000  1.000  1.000  0.000  0.000   1.0 |
 |  0.25  0.50  0.07  2  1  1  0.000  0.000  1.000  1.000  0.000  0.000   1.0 |
 |  0.25  0.50  0.07  2  2  1  0.000  0.000  1.000  1.000  0.000  0.000   1.0 |
 |  0.25  0.50  0.07  2  3  1  0.000  0.000  1.000  1.000  0.000  0.000   1.0 |
 |  0.25  0.50  0.07  2  4  1  0.000  0.000  1.000  1.000  0.000  0.000   1.0 |
 |  0.25  0.50  0.07  2  5  1  0.000  0.000  1.000  1.000  0.000  0.000   1.0 |
 |  0.25  0.25  0.07  2  1  1  0.000  0.000  1.000  1.000  0.000  0.000   1.0 |
 |  0.25  0.25  0.07  2  2  1  0.000  0.000  1.000  1.000  0.000  0.000   1.0 |
 |  0.25  0.25  0.07  2  3  1  0.000  0.000  1.000  1.000  0.000  0.000   1.0 |
 |  0.25  0.25  0.07  2  4  1  0.000  0.000  1.000  1.000  0.000  0.000   1.0 |
 |  0.25  0.25  0.07  2  5  1  0.000  0.000  1.000  1.000  0.000  0.000   1.0 |
 |  0.00  0.25  0.07  2  1  1  0.000  0.000  1.000  1.000  0.000  0.000   1.0 |
 |  0.00  0.25  0.07  2  2  1  0.000  0.000  1.000  1.000  0.000  0.000   1.0 |
 |  0.00  0.25  0.07  2  3  1  0.000  0.000  1.000  1.000  0.000  0.000   1.0 |
 |  0.00  0.25  0.07  2  4  1  0.000  0.000  1.000  1.000  0.000  0.000   1.0 |
 |  0.00  0.25  0.07  2  5  1  0.000  0.000  1.000  1.000  0.000  0.000   1.0 |
 |  0.00  0.50  0.07  2  1  1  0.000  0.000  1.000  1.000  0.000  0.000   1.0 |
 |  0.00  0.50  0.07  2  2  1  0.000  0.000  1.000  1.000  0.000  0.000   1.0 |
 |  0.00  0.50  0.07  2  3  1  0.000  0.000  1.000  1.000  0.000  0.000   1.0 |
 |  0.00  0.50  0.07  2  4  1  0.000  0.000  1.000  1.000  0.000  0.000   1.0 |
 |  0.00  0.50  0.07  2  5  1  0.000  0.000  1.000  1.000  0.000  0.000   1.0 |
 |  0.17  0.08  0.00  1  1  1  0.000  0.000  1.000  1.000  0.000  0.000   1.0 |
 |  0.17  0.08  0.00  1  2  1  0.000  0.000  1.000  1.000  0.000  0.000   1.0 |
 |  0.17  0.08  0.00  1  3  1  0.000  0.000  1.000  1.000  0.000  0.000   1.0 |
 |  0.17  0.08  0.14  1  1  1  0.000  0.000  1.000  1.000  0.000  0.000   1.0 |
 |  0.17  0.08  0.14  1  2  1  0.000  0.000  1.000  1.000  0.000  0.000   1.0 |
 |  0.17  0.08  0.14  1  3  1  0.000  0.000  1.000  1.000  0.000  0.000   1.0 |
 |  0.42  0.08  0.00  1  1  1  0.000  0.000  1.000  1.000  0.000  0.000   1.0 |
 |  0.42  0.08  0.00  1  2  1  0.000  0.000  1.000  1.000  0.000  0.000   1.0 |
 |  0.42  0.08  0.00  1  3  1  0.000  0.000  1.000  1.000  0.000  0.000   1.0 |
 |  0.42  0.08  0.14  1  1  1  0.000  0.000  1.000  1.000  0.000  0.000   1.0 |
 |  0.42  0.08  0.14  1  2  1  0.000  0.000  1.000  1.000  0.000  0.000   1.0 |
 |  0.42  0.08  0.14  1  3  1  0.000  0.000  1.000  1.000  0.000  0.000   1.0 |
 |  0.67  0.08  0.00  1  1  1  0.000  0.000  1.000  1.000  0.000  0.000   1.0 |
 |  0.67  0.08  0.00  1  2  1  0.000  0.000  1.000  1.000  0.000  0.000   1.0 |
 |  0.67  0.08  0.00  1  3  1  0.000  0.000  1.000  1.000  0.000  0.000   1.0 |
 |  0.67  0.08  0.14  1  1  1  0.000  0.000  1.000  1.000  0.000  0.000   1.0 |
 |  0.67  0.08  0.14  1  2  1  0.000  0.000  1.000  1.000  0.000  0.000   1.0 |
 |  0.67  0.08  0.14  1  3  1  0.000  0.000  1.000  1.000  0.000  0.000   1.0 |
 |  0.92  0.08  0.00  1  1  1  0.000  0.000  1.000  1.000  0.000  0.000   1.0 |
 |  0.92  0.08  0.00  1  2  1  0.000  0.000  1.000  1.000  0.000  0.000   1.0 |
 |  0.92  0.08  0.00  1  3  1  0.000  0.000  1.000  1.000  0.000  0.000   1.0 |
 |  0.92  0.08  0.14  1  1  1  0.000  0.000  1.000  1.000  0.000  0.000   1.0 |
 |  0.92  0.08  0.14  1  2  1  0.000  0.000  1.000  1.000  0.000  0.000   1.0 |
 |  0.92  0.08  0.14  1  3  1  0.000  0.000  1.000  1.000  0.000  0.000   1.0 |
 |  0.92  0.33  0.00  1  1  1  0.000  0.000  1.000  1.000  0.000  0.000   1.0 |
 |  0.92  0.33  0.00  1  2  1  0.000  0.000  1.000  1.000  0.000  0.000   1.0 |
 |  0.92  0.33  0.00  1  3  1  0.000  0.000  1.000  1.000  0.000  0.000   1.0 |
 |  0.92  0.33  0.14  1  1  1  0.000  0.000  1.000  1.000  0.000  0.000   1.0 |
 |  0.92  0.33  0.14  1  2  1  0.000  0.000  1.000  1.000  0.000  0.000   1.0 |
 |  0.92  0.33  0.14  1  3  1  0.000  0.000  1.000  1.000  0.000  0.000   1.0 |
 |  0.92  0.58  0.00  1  1  1  0.000  0.000  1.000  1.000  0.000  0.000   1.0 |
 |  0.92  0.58  0.00  1  2  1  0.000  0.000  1.000  1.000  0.000  0.000   1.0 |
 |  0.92  0.58  0.00  1  3  1  0.000  0.000  1.000  1.000  0.000  0.000   1.0 |
 |  0.92  0.58  0.14  1  1  1  0.000  0.000  1.000  1.000  0.000  0.000   1.0 |
 |  0.92  0.58  0.14  1  2  1  0.000  0.000  1.000  1.000  0.000  0.000   1.0 |
 |  0.92  0.58  0.14  1  3  1  0.000  0.000  1.000  1.000  0.000  0.000   1.0 |
 |  0.92  0.83  0.00  1  1  1  0.000  0.000  1.000  1.000  0.000  0.000   1.0 |
 |  0.92  0.83  0.00  1  2  1  0.000  0.000  1.000  1.000  0.000  0.000   1.0 |
 |  0.92  0.83  0.00  1  3  1  0.000  0.000  1.000  1.000  0.000  0.000   1.0 |
 |  0.92  0.83  0.14  1  1  1  0.000  0.000  1.000  1.000  0.000  0.000   1.0 |
 |  0.92  0.83  0.14  1  2  1  0.000  0.000  1.000  1.000  0.000  0.000   1.0 |
 |  0.92  0.83  0.14  1  3  1  0.000  0.000  1.000  1.000  0.000  0.000   1.0 |
 |  0.67  0.83  0.00  1  1  1  0.000  0.000  1.000  1.000  0.000  0.000   1.0 |
 |  0.67  0.83  0.00  1  2  1  0.000  0.000  1.000  1.000  0.000  0.000   1.0 |
 |  0.67  0.83  0.00  1  3  1  0.000  0.000  1.000  1.000  0.000  0.000   1.0 |
 |  0.67  0.83  0.14  1  1  1  0.000  0.000  1.000  1.000  0.000  0.000   1.0 |
 |  0.67  0.83  0.14  1  2  1  0.000  0.000  1.000  1.000  0.000  0.000   1.0 |
 |  0.67  0.83  0.14  1  3  1  0.000  0.000  1.000  1.000  0.000  0.000   1.0 |
 |  0.42  0.83  0.00  1  1  1  0.000  0.000  1.000  1.000  0.000  0.000   1.0 |
 |  0.42  0.83  0.00  1  2  1  0.000  0.000  1.000  1.000  0.000  0.000   1.0 |
 |  0.42  0.83  0.00  1  3  1  0.000  0.000  1.000  1.000  0.000  0.000   1.0 |
 |  0.42  0.83  0.14  1  1  1  0.000  0.000  1.000  1.000  0.000  0.000   1.0 |
 |  0.42  0.83  0.14  1  2  1  0.000  0.000  1.000  1.000  0.000  0.000   1.0 |
 |  0.42  0.83  0.14  1  3  1  0.000  0.000  1.000  1.000  0.000  0.000   1.0 |
 |  0.17  0.83  0.00  1  1  1  0.000  0.000  1.000  1.000  0.000  0.000   1.0 |
 |  0.17  0.83  0.00  1  2  1  0.000  0.000  1.000  1.000  0.000  0.000   1.0 |
 |  0.17  0.83  0.00  1  3  1  0.000  0.000  1.000  1.000  0.000  0.000   1.0 |
 |  0.17  0.83  0.14  1  1  1  0.000  0.000  1.000  1.000  0.000  0.000   1.0 |
 |  0.17  0.83  0.14  1  2  1  0.000  0.000  1.000  1.000  0.000  0.000   1.0 |
 |  0.17  0.83  0.14  1  3  1  0.000  0.000  1.000  1.000  0.000  0.000   1.0 |
 |  0.67  0.33  0.00  1  1  1  0.000  0.000  1.000  1.000  0.000  0.000   1.0 |
 |  0.67  0.33  0.00  1  2  1  0.000  0.000  1.000  1.000  0.000  0.000   1.0 |
 |  0.67  0.33  0.00  1  3  1  0.000  0.000  1.000  1.000  0.000  0.000   1.0 |
 |  0.67  0.33  0.14  1  1  1  0.000  0.000  1.000  1.000  0.000  0.000   1.0 |
 |  0.67  0.33  0.14  1  2  1  0.000  0.000  1.000  1.000  0.000  0.000   1.0 |
 |  0.67  0.33  0.14  1  3  1  0.000  0.000  1.000  1.000  0.000  0.000   1.0 |
 |  0.67  0.58  0.00  1  1  1  0.000  0.000  1.000  1.000  0.000  0.000   1.0 |
 |  0.67  0.58  0.00  1  2  1  0.000  0.000  1.000  1.000  0.000  0.000   1.0 |
 |  0.67  0.58  0.00  1  3  1  0.000  0.000  1.000  1.000  0.000  0.000   1.0 |
 |  0.67  0.58  0.14  1  1  1  0.000  0.000  1.000  1.000  0.000  0.000   1.0 |
 |  0.67  0.58  0.14  1  2  1  0.000  0.000  1.000  1.000  0.000  0.000   1.0 |
 |  0.67  0.58  0.14  1  3  1  0.000  0.000  1.000  1.000  0.000  0.000   1.0 |
 |  0.42  0.58  0.00  1  1  1  0.000  0.000  1.000  1.000  0.000  0.000   1.0 |
 |  0.42  0.58  0.00  1  2  1  0.000  0.000  1.000  1.000  0.000  0.000   1.0 |
 |  0.42  0.58  0.00  1  3  1  0.000  0.000  1.000  1.000  0.000  0.000   1.0 |
 |  0.42  0.58  0.14  1  1  1  0.000  0.000  1.000  1.000  0.000  0.000   1.0 |
 |  0.42  0.58  0.14  1  2  1  0.000  0.000  1.000  1.000  0.000  0.000   1.0 |
 |  0.42  0.58  0.14  1  3  1  0.000  0.000  1.000  1.000  0.000  0.000   1.0 |
 |  0.42  0.33  0.00  1  1  1  0.000  0.000  1.000  1.000  0.000  0.000   1.0 |
 |  0.42  0.33  0.00  1  2  1  0.000  0.000  1.000  1.000  0.000  0.000   1.0 |
 |  0.42  0.33  0.00  1  3  1  0.000  0.000  1.000  1.000  0.000  0.000   1.0 |
 |  0.42  0.33  0.14  1  1  1  0.000  0.000  1.000  1.000  0.000  0.000   1.0 |
 |  0.42  0.33  0.14  1  2  1  0.000  0.000  1.000  1.000  0.000  0.000   1.0 |
 |  0.42  0.33  0.14  1  3  1  0.000  0.000  1.000  1.000  0.000  0.000   1.0 |
 |  0.17  0.33  0.00  1  1  1  0.000  0.000  1.000  1.000  0.000  0.000   1.0 |
 |  0.17  0.33  0.00  1  2  1  0.000  0.000  1.000  1.000  0.000  0.000   1.0 |
 |  0.17  0.33  0.00  1  3  1  0.000  0.000  1.000  1.000  0.000  0.000   1.0 |
 |  0.17  0.33  0.14  1  1  1  0.000  0.000  1.000  1.000  0.000  0.000   1.0 |
 |  0.17  0.33  0.14  1  2  1  0.000  0.000  1.000  1.000  0.000  0.000   1.0 |
 |  0.17  0.33  0.14  1  3  1  0.000  0.000  1.000  1.000  0.000  0.000   1.0 |
 |  0.17  0.58  0.00  1  1  1  0.000  0.000  1.000  1.000  0.000  0.000   1.0 |
 |  0.17  0.58  0.00  1  2  1  0.000  0.000  1.000  1.000  0.000  0.000   1.0 |
 |  0.17  0.58  0.00  1  3  1  0.000  0.000  1.000  1.000  0.000  0.000   1.0 |
 |  0.17  0.58  0.14  1  1  1  0.000  0.000  1.000  1.000  0.000  0.000   1.0 |
 |  0.17  0.58  0.14  1  2  1  0.000  0.000  1.000  1.000  0.000  0.000   1.0 |
 |  0.17  0.58  0.14  1  3  1  0.000  0.000  1.000  1.000  0.000  0.000   1.0 |
 +----------------------------------------------------------------------------+
  
                                ------------
                                K-POINT GRID
                                ------------
  
             Grid size =  3 x  3 x  1      Total points =    9
  
 *----------------------------------------------------------------------------*
 | k-point      Fractional Coordinate        Cartesian Coordinate (Ang^-1)    |
 +----------------------------------------------------------------------------+
 |     1    0.00000   0.00000   0.00000   |    0.00000   0.00000   0.00000    |
 |     2    0.00000   0.33333   0.00000   |    0.00000   0.17545   0.00000    |
 |     3    0.00000   0.66667   0.00000   |    0.00000   0.35090   0.00000    |
 |     4    0.33333   0.00000   0.00000   |    0.15194   0.08772   0.00000    |
 |     5    0.33333   0.33333   0.00000   |    0.15194   0.26317   0.00000    |
 |     6    0.33333   0.66667   0.00000   |    0.15194   0.43862   0.00000    |
 |     7    0.66667   0.00000   0.00000   |    0.30388   0.17545   0.00000    |
 |     8    0.66667   0.33333   0.00000   |    0.30388   0.35090   0.00000    |
 |     9    0.66667   0.66667   0.00000   |    0.30388   0.52634   0.00000    |
 *----------------------------------------------------------------------------*
  
  
 *---------------------------------- MAIN ------------------------------------*
 |  Number of Wannier Functions               :               176             |
 |  Number of Objective Wannier Functions     :               176             |
 |  Number of input Bloch states              :               300             |
 |  Output verbosity (1=low, 5=high)          :                 3             |
 |  Timing Level (1=low, 5=high)              :                 1             |
 |  Optimisation (0=memory, 3=speed)          :                 3             |
 |  Length Unit                               :               Ang             |
 |  Post-processing setup (write *.nnkp)      :                 F             |
 |  Using Gamma-only branch of algorithms     :                 F             |
 |  CP code post-processing                   :                 F             |
 |  Wavefunction (UNK) file-type              :       unformatted             |
 |  Wavefunction spin channel                 :                up             |
 *----------------------------------------------------------------------------*
 *------------------------------- WANNIERISE ---------------------------------*
 |  Total number of iterations                :               500             |
 |  Number of CG steps before reset           :                 5             |
 |  Trial step length for line search         :             2.000             |
 |  Convergence tolerence                     :         0.100E-09             |
 |  Convergence window                        :                -1             |
 |  Iterations between writing output         :                50             |
 |  Iterations between backing up to disk     :               100             |
 |  Write r^2_nm to file                      :                 F             |
 |  Write xyz WF centres to file              :                 T             |
 |  Write on-site energies <0n|H|0n> to file  :                 F             |
 |  Use guiding centre to control phases      :                 T             |
 |  Use phases for initial projections        :                 F             |
 |  Iterations before starting guiding centres:                 0             |
 |  Iterations between using guiding centres  :                 1             |
 |  Perform selective localization            :                 F             |
 |  Use constrains in selective localization  :                 F             |
 |  Value of the Lagrange multiplier          :         0.100E+01             |
 *----------------------------------------------------------------------------*
 *------------------------------- DISENTANGLE --------------------------------*
 |  Using band disentanglement                :                 T             |
 |  Total number of iterations                :              4000             |
 |  Mixing ratio                              :             0.500             |
 |  Convergence tolerence                     :         1.000E-10             |
 |  Convergence window                        :                 3             |
 *----------------------------------------------------------------------------*
 *-------------------------------- PLOTTING ----------------------------------*
 |  Plotting Wannier functions                :                 F             |
 |   Size of supercell for plotting           :     2x    2x    2             |
 |   Plotting mode (molecule or crystal)      :           crystal             |
 |   Plotting format                          :          xcrysden             |
 |   Plot radius                              :             3.500             |
 |   Plot scale                               :             1.000             |
 *----------------------------------------------------------------------------*
 |  Plotting Fermi surface                    :                 F             |
 |   Number of plotting points (along b_1)    :                50             |
 |   Plotting format                          :          xcrysden             |
 *----------------------------------------------------------------------------*
 |  Plotting interpolated bandstructure       :                 T             |
 |   Number of K-path sections                :                 3             |
 |   Divisions along first K-path section     :               100             |
 |   Output format                            :           gnuplot             |
 |   Output mode                              :               s-k             |
 *----------------------------------------------------------------------------*
 |   K-space path sections:                                                   |
 |    From: Γ      0.000  0.000  0.000     To: K       0.333  0.333  0.000   |
 |    From: K       0.333  0.333  0.000     To: M       0.500  0.000  0.000   |
 |    From: M       0.500  0.000  0.000     To: Γ      0.000  0.000  0.000   |
 *----------------------------------------------------------------------------*
 |  Plotting Hamiltonian in WF basis          :                 T             |
 *----------------------------------------------------------------------------*
 |  Writing data for Van der Waals post-proc  :                 F             |
 *----------------------------------------------------------------------------*
 *------------------------------- TRANSPORT ----------------------------------*
 |  Transport mode                            :              bulk             |
 |   Hamiltonian from external files          :                 F             |
 |   System extended in                       :              none             |
 |   Centre of the unit cell to which WF are translated (fract. coords):      |
 |                                       0.000000,    0.000000,    0.000000   |
 |  Fermi energy (eV)                         :             0.000             |
 *----------------------------------------------------------------------------*
 Time to read parameters        0.033 (sec)

 *---------------------------------- K-MESH ----------------------------------*
 +----------------------------------------------------------------------------+
 |                    Distance to Nearest-Neighbour Shells                    |
 |                    ------------------------------------                    |
 |          Shell             Distance (Ang^-1)          Multiplicity         |
 |          -----             -----------------          ------------         |
 |             1                   0.175448                      6            |
 |             2                   0.265883                      2            |
 |             3                   0.303884                      6            |
 |             4                   0.318552                     12            |
 |             5                   0.350895                      6            |
 |             6                   0.403781                     12            |
 |             7                   0.440251                     12            |
 |             8                   0.464191                     12            |
 |             9                   0.526343                      6            |
 |            10                   0.531765                      2            |
 |            11                   0.534945                     24            |
 |            12                   0.559961                     12            |
 |            13                   0.589686                     12            |
 |            14                   0.607768                      6            |
 |            15                   0.612470                     12            |
 |            16                   0.632585                     12            |
 |            17                   0.637104                     12            |
 |            18                   0.663382                     12            |
 |            19                   0.686191                     24            |
 |            20                   0.701790                      6            |
 |            21                   0.705866                     24            |
 |            22                   0.748205                     12            |
 |            23                   0.750469                     12            |
 |            24                   0.764758                     12            |
 |            25                   0.797648                      2            |
 |            26                   0.804002                     12            |
 |            27                   0.807562                     12            |
 |            28                   0.809660                     24            |
 |            29                   0.816715                     12            |
 |            30                   0.826401                     24            |
 |            31                   0.846825                     24            |
 |            32                   0.853573                     12            |
 |            33                   0.871418                     12            |
 |            34                   0.877238                      6            |
 |            35                   0.880502                     12            |
 |            36                   0.911652                      6            |
 +----------------------------------------------------------------------------+
 | The b-vectors are chosen automatically                                     |
 | Shell:  1 Multiplicity:  6                                                 |
 | b-vector 1 :        0.000000    0.175448    0.000000      (Ang^-1)         |
 | b-vector 2 :        0.151942    0.087724    0.000000      (Ang^-1)         |
 | b-vector 3 :        0.000000   -0.175448    0.000000      (Ang^-1)         |
 | b-vector 4 :        0.151942   -0.087724    0.000000      (Ang^-1)         |
 | b-vector 5 :       -0.151942   -0.087724    0.000000      (Ang^-1)         |
 | b-vector 6 :       -0.151942    0.087724    0.000000      (Ang^-1)         |
 | Shell:  1 w_b   10.8288937      (Ang^2)                                    |
 | B1 condition is not satisfied: Adding another shell                        |
 | Shell:  2 Multiplicity:  2                                                 |
 | b-vector 1 :        0.000000    0.000000    0.265883      (Ang^-1)         |
 | b-vector 2 :        0.000000    0.000000   -0.265883      (Ang^-1)         |
 | Shell:  1 w_b   10.8288937      (Ang^2)                                    |
 | Shell:  2 w_b    7.0727819      (Ang^2)                                    |
 | The following shells are used:   1,  2                                     |
 +----------------------------------------------------------------------------+
 |                        Shell   # Nearest-Neighbours                        |
 |                        -----   --------------------                        |
 |                          1               6                                 |
 |                          2               2                                 |
 +----------------------------------------------------------------------------+
 | Completeness relation is fully satisfied [Eq. (B1), PRB 56, 12847 (1997)]  |
 +----------------------------------------------------------------------------+
 |                  b_k Vectors (Ang^-1) and Weights (Ang^2)                  |
 |                  ----------------------------------------                  |
 |            No.         b_k(x)      b_k(y)      b_k(z)        w_b           |
 |            ---        --------------------------------     --------        |
 |             1         0.000000    0.175448    0.000000    10.828894        |
 |             2         0.151942    0.087724    0.000000    10.828894        |
 |             3         0.000000   -0.175448    0.000000    10.828894        |
 |             4         0.151942   -0.087724    0.000000    10.828894        |
 |             5        -0.151942   -0.087724    0.000000    10.828894        |
 |             6        -0.151942    0.087724    0.000000    10.828894        |
 |             7         0.000000    0.000000    0.265883     7.072782        |
 |             8         0.000000    0.000000   -0.265883     7.072782        |
 +----------------------------------------------------------------------------+
 |                           b_k Directions (Ang^-1)                          |
 |                           -----------------------                          |
 |            No.           x           y           z                         |
 |            ---        --------------------------------                     |
 |             1         0.000000    0.175448    0.000000                     |
 |             2         0.151942    0.087724    0.000000                     |
 |             3         0.151942   -0.087724    0.000000                     |
 |             4         0.000000    0.000000    0.265883                     |
 +----------------------------------------------------------------------------+
  
 Time to get kmesh              0.021 (sec)
 *============================================================================*
 |                              MEMORY ESTIMATE                               |
 |         Maximum RAM allocated during each phase of the calculation         |
 *============================================================================*
 |                        Disentanglement          151.78 Mb                  |
 |                            Wannierise:           95.30 Mb                  |
 |                                                                            |
 |   N.B. by setting optimisation=0 memory usage will be reduced to:          |
 |                        Disentanglement          146.64 Mb                  |
 |                            Wannierise:           61.27 Mb                  |
 |   However, this will result in more i/o and slow down the calculation      |
 |                          plot_wannier:           95.30 Mb                  |
 *----------------------------------------------------------------------------*
  
 Starting a new Wannier90 calculation ...


 Reading overlaps from 1Fe_initialconf.down.mmn    :  Created on  5Apr2023 at 20:59:53

 Reading projections from 1Fe_initialconf.down.amn :  Created on  5Apr2023 at 20:49:58

 Time to read overlaps         16.228 (sec)

 *------------------------------- DISENTANGLE --------------------------------*
 +----------------------------------------------------------------------------+
 |                              Energy  Windows                               |
 |                              ---------------                               |
 |                   Outer:  -30.00000  to   30.00000  (eV)                   |
 |                   Inner:   -6.00000  to    2.00000  (eV)                   |
 +----------------------------------------------------------------------------+
 |                        K-points with Frozen States                         |
 |                        ---------------------------                         |
 |     1     2     3     4     5     6     7     8     9                      |
 +----------------------------------------------------------------------------+
   Number of target bands to extract:  176
 +----------------------------------------------------------------------------+
 |                                  Windows                                   |
 |                                  -------                                   |
 |               K-point      Ndimwin     Ndimfroz    Nfirstwin               |
 |               ----------------------------------------------               |
 |                   1          236          126          65                  |
 |                   2          236          119          65                  |
 |                   3          236          119          65                  |
 |                   4          236          119          65                  |
 |                   5          236          114          65                  |
 |                   6          236          119          65                  |
 |                   7          236          119          65                  |
 |                   8          236          119          65                  |
 |                   9          236          114          65                  |
 +----------------------------------------------------------------------------+

                   Unitarised projection of Wannier functions                  
                   ------------------------------------------                  
   A_mn = <psi_m|g_n> --> S = A.A^+ --> U = S^-1/2.A
   In dis_project... done
   Using an inner window (linner = T)
   In dis_proj_froz...
 K-point   1 ndimwin: 236 we want the 50 leading eigenvector(s) of QPQ
  lambda(  1)= -0.000000000000
  lambda(  2)= -0.000000000000
  lambda(  3)= -0.000000000000
  lambda(  4)= -0.000000000000
  lambda(  5)= -0.000000000000
  lambda(  6)= -0.000000000000
  lambda(  7)= -0.000000000000
  lambda(  8)= -0.000000000000
  lambda(  9)= -0.000000000000
  lambda( 10)= -0.000000000000
  lambda( 11)= -0.000000000000
  lambda( 12)= -0.000000000000
  lambda( 13)= -0.000000000000
  lambda( 14)= -0.000000000000
  lambda( 15)= -0.000000000000
  lambda( 16)= -0.000000000000
  lambda( 17)= -0.000000000000
  lambda( 18)= -0.000000000000
  lambda( 19)= -0.000000000000
  lambda( 20)= -0.000000000000
  lambda( 21)= -0.000000000000
  lambda( 22)= -0.000000000000
  lambda( 23)= -0.000000000000
  lambda( 24)= -0.000000000000
  lambda( 25)= -0.000000000000
  lambda( 26)= -0.000000000000
  lambda( 27)= -0.000000000000
  lambda( 28)= -0.000000000000
  lambda( 29)= -0.000000000000
  lambda( 30)= -0.000000000000
  lambda( 31)= -0.000000000000
  lambda( 32)= -0.000000000000
  lambda( 33)= -0.000000000000
  lambda( 34)= -0.000000000000
  lambda( 35)= -0.000000000000
  lambda( 36)= -0.000000000000
  lambda( 37)= -0.000000000000
  lambda( 38)= -0.000000000000
  lambda( 39)= -0.000000000000
  lambda( 40)= -0.000000000000
  lambda( 41)= -0.000000000000
  lambda( 42)= -0.000000000000
  lambda( 43)= -0.000000000000
  lambda( 44)= -0.000000000000
  lambda( 45)= -0.000000000000
  lambda( 46)= -0.000000000000
  lambda( 47)= -0.000000000000
  lambda( 48)= -0.000000000000
  lambda( 49)= -0.000000000000
  lambda( 50)= -0.000000000000
  lambda( 51)= -0.000000000000
  lambda( 52)= -0.000000000000
  lambda( 53)= -0.000000000000
  lambda( 54)= -0.000000000000
  lambda( 55)= -0.000000000000
  lambda( 56)= -0.000000000000
  lambda( 57)= -0.000000000000
  lambda( 58)= -0.000000000000
  lambda( 59)= -0.000000000000
  lambda( 60)= -0.000000000000
  lambda( 61)= -0.000000000000
  lambda( 62)= -0.000000000000
  lambda( 63)= -0.000000000000
  lambda( 64)= -0.000000000000
  lambda( 65)=  0.000000000000
  lambda( 66)=  0.000000000000
  lambda( 67)=  0.000000000000
  lambda( 68)=  0.000000000000
  lambda( 69)=  0.000000000000
  lambda( 70)=  0.000000000000
  lambda( 71)=  0.000000000000
  lambda( 72)=  0.000000000000
  lambda( 73)=  0.000000000000
  lambda( 74)=  0.000000000000
  lambda( 75)=  0.000000000000
  lambda( 76)=  0.000000000000
  lambda( 77)=  0.000000000000
  lambda( 78)=  0.000000000000
  lambda( 79)=  0.000000000000
  lambda( 80)=  0.000000000000
  lambda( 81)=  0.000000000000
  lambda( 82)=  0.000000000000
  lambda( 83)=  0.000000000000
  lambda( 84)=  0.000000000000
  lambda( 85)=  0.000000000000
  lambda( 86)=  0.000000000000
  lambda( 87)=  0.000000000000
  lambda( 88)=  0.000000000000
  lambda( 89)=  0.000000000000
  lambda( 90)=  0.000000000000
  lambda( 91)=  0.000000000000
  lambda( 92)=  0.000000000000
  lambda( 93)=  0.000000000000
  lambda( 94)=  0.000000000000
  lambda( 95)=  0.000000000000
  lambda( 96)=  0.000000000000
  lambda( 97)=  0.000000000000
  lambda( 98)=  0.000000000000
  lambda( 99)=  0.000000000000
  lambda(100)=  0.000000000000
  lambda(101)=  0.000000000000
  lambda(102)=  0.000000000000
  lambda(103)=  0.000000000000
  lambda(104)=  0.000000000000
  lambda(105)=  0.000000000000
  lambda(106)=  0.000000000000
  lambda(107)=  0.000000000000
  lambda(108)=  0.000000000000
  lambda(109)=  0.000000000000
  lambda(110)=  0.000000000000
  lambda(111)=  0.000000000000
  lambda(112)=  0.000000000000
  lambda(113)=  0.000000000000
  lambda(114)=  0.000000000000
  lambda(115)=  0.000000000000
  lambda(116)=  0.000000000000
  lambda(117)=  0.000000000000
  lambda(118)=  0.000000000000
  lambda(119)=  0.000000000000
  lambda(120)=  0.000000000000
  lambda(121)=  0.000000000000
  lambda(122)=  0.000000000000
  lambda(123)=  0.000000000000
  lambda(124)=  0.000000000000
  lambda(125)=  0.000000000000
  lambda(126)=  0.000000000000
  lambda(127)=  0.000000000000
  lambda(128)=  0.000000000001
  lambda(129)=  0.000000000071
  lambda(130)=  0.000000000831
  lambda(131)=  0.000002310375
  lambda(132)=  0.000035354868
  lambda(133)=  0.000035356132
  lambda(134)=  0.000035367435
  lambda(135)=  0.000035382629
  lambda(136)=  0.000035383363
  lambda(137)=  0.000035395019
  lambda(138)=  0.000053629658
  lambda(139)=  0.002246853808
  lambda(140)=  0.002246972615
  lambda(141)=  0.002247518412
  lambda(142)=  0.002247906445
  lambda(143)=  0.002247928013
  lambda(144)=  0.002248521724
  lambda(145)=  0.016621321216
  lambda(146)=  0.016621761029
  lambda(147)=  0.016621959019
  lambda(148)=  0.016622124085
  lambda(149)=  0.016645142844
  lambda(150)=  0.019166040772
  lambda(151)=  0.024137658427
  lambda(152)=  0.025589453982
  lambda(153)=  0.025613342190
  lambda(154)=  0.025614881768
  lambda(155)=  0.045650419793
  lambda(156)=  0.052646512818
  lambda(157)=  0.052648342730
  lambda(158)=  0.052648479572
  lambda(159)=  0.052648844842
  lambda(160)=  0.052650470591
  lambda(161)=  0.052650666100
  lambda(162)=  0.064649968019
  lambda(163)=  0.064665400024
  lambda(164)=  0.064667300156
  lambda(165)=  0.074204075118
  lambda(166)=  0.074208205211
  lambda(167)=  0.074211420408
  lambda(168)=  0.088406942595
  lambda(169)=  0.088407580356
  lambda(170)=  0.088407777326
  lambda(171)=  0.088409027117
  lambda(172)=  0.088409198842
  lambda(173)=  0.088409797529
  lambda(174)=  0.092621481898
  lambda(175)=  0.092621650493
  lambda(176)=  0.092625027494
  lambda(177)=  0.092625118413
  lambda(178)=  0.092636943242
  lambda(179)=  0.092637073246
  lambda(180)=  0.157498345618
  lambda(181)=  0.157499911607
  lambda(182)=  0.157501674657
  lambda(183)=  0.157503676561
  lambda(184)=  0.157509799682
  lambda(185)=  0.162031951688
  lambda(186)=  0.258427143926
  lambda(187)=  1.000000000000
  lambda(188)=  1.000000000000
  lambda(189)=  1.000000000000
  lambda(190)=  1.000000000000
  lambda(191)=  1.000000000000
  lambda(192)=  1.000000000000
  lambda(193)=  1.000000000000
  lambda(194)=  1.000000000000
  lambda(195)=  1.000000000000
  lambda(196)=  1.000000000000
  lambda(197)=  1.000000000000
  lambda(198)=  1.000000000000
  lambda(199)=  1.000000000000
  lambda(200)=  1.000000000000
  lambda(201)=  1.000000000000
  lambda(202)=  1.000000000000
  lambda(203)=  1.000000000000
  lambda(204)=  1.000000000000
  lambda(205)=  1.000000000000
  lambda(206)=  1.000000000000
  lambda(207)=  1.000000000000
  lambda(208)=  1.000000000000
  lambda(209)=  1.000000000000
  lambda(210)=  1.000000000000
  lambda(211)=  1.000000000000
  lambda(212)=  1.000000000000
  lambda(213)=  1.000000000000
  lambda(214)=  1.000000000000
  lambda(215)=  1.000000000000
  lambda(216)=  1.000000000000
  lambda(217)=  1.000000000000
  lambda(218)=  1.000000000000
  lambda(219)=  1.000000000000
  lambda(220)=  1.000000000000
  lambda(221)=  1.000000000000
  lambda(222)=  1.000000000000
  lambda(223)=  1.000000000000
  lambda(224)=  1.000000000000
  lambda(225)=  1.000000000000
  lambda(226)=  1.000000000000
  lambda(227)=  1.000000000000
  lambda(228)=  1.000000000000
  lambda(229)=  1.000000000000
  lambda(230)=  1.000000000000
  lambda(231)=  1.000000000000
  lambda(232)=  1.000000000000
  lambda(233)=  1.000000000000
  lambda(234)=  1.000000000000
  lambda(235)=  1.000000000000
  lambda(236)=  1.000000000000

 K-point   2 ndimwin: 236 we want the 57 leading eigenvector(s) of QPQ
  lambda(  1)= -0.000000000000
  lambda(  2)= -0.000000000000
  lambda(  3)= -0.000000000000
  lambda(  4)= -0.000000000000
  lambda(  5)= -0.000000000000
  lambda(  6)= -0.000000000000
  lambda(  7)= -0.000000000000
  lambda(  8)= -0.000000000000
  lambda(  9)= -0.000000000000
  lambda( 10)= -0.000000000000
  lambda( 11)= -0.000000000000
  lambda( 12)= -0.000000000000
  lambda( 13)= -0.000000000000
  lambda( 14)= -0.000000000000
  lambda( 15)= -0.000000000000
  lambda( 16)= -0.000000000000
  lambda( 17)= -0.000000000000
  lambda( 18)= -0.000000000000
  lambda( 19)= -0.000000000000
  lambda( 20)= -0.000000000000
  lambda( 21)= -0.000000000000
  lambda( 22)= -0.000000000000
  lambda( 23)= -0.000000000000
  lambda( 24)= -0.000000000000
  lambda( 25)= -0.000000000000
  lambda( 26)= -0.000000000000
  lambda( 27)= -0.000000000000
  lambda( 28)= -0.000000000000
  lambda( 29)= -0.000000000000
  lambda( 30)= -0.000000000000
  lambda( 31)= -0.000000000000
  lambda( 32)= -0.000000000000
  lambda( 33)= -0.000000000000
  lambda( 34)= -0.000000000000
  lambda( 35)= -0.000000000000
  lambda( 36)= -0.000000000000
  lambda( 37)= -0.000000000000
  lambda( 38)= -0.000000000000
  lambda( 39)= -0.000000000000
  lambda( 40)= -0.000000000000
  lambda( 41)= -0.000000000000
  lambda( 42)= -0.000000000000
  lambda( 43)= -0.000000000000
  lambda( 44)= -0.000000000000
  lambda( 45)= -0.000000000000
  lambda( 46)= -0.000000000000
  lambda( 47)= -0.000000000000
  lambda( 48)= -0.000000000000
  lambda( 49)= -0.000000000000
  lambda( 50)= -0.000000000000
  lambda( 51)= -0.000000000000
  lambda( 52)= -0.000000000000
  lambda( 53)= -0.000000000000
  lambda( 54)= -0.000000000000
  lambda( 55)= -0.000000000000
  lambda( 56)= -0.000000000000
  lambda( 57)= -0.000000000000
  lambda( 58)= -0.000000000000
  lambda( 59)= -0.000000000000
  lambda( 60)=  0.000000000000
  lambda( 61)=  0.000000000000
  lambda( 62)=  0.000000000000
  lambda( 63)=  0.000000000000
  lambda( 64)=  0.000000000000
  lambda( 65)=  0.000000000000
  lambda( 66)=  0.000000000000
  lambda( 67)=  0.000000000000
  lambda( 68)=  0.000000000000
  lambda( 69)=  0.000000000000
  lambda( 70)=  0.000000000000
  lambda( 71)=  0.000000000000
  lambda( 72)=  0.000000000000
  lambda( 73)=  0.000000000000
  lambda( 74)=  0.000000000000
  lambda( 75)=  0.000000000000
  lambda( 76)=  0.000000000000
  lambda( 77)=  0.000000000000
  lambda( 78)=  0.000000000000
  lambda( 79)=  0.000000000000
  lambda( 80)=  0.000000000000
  lambda( 81)=  0.000000000000
  lambda( 82)=  0.000000000000
  lambda( 83)=  0.000000000000
  lambda( 84)=  0.000000000000
  lambda( 85)=  0.000000000000
  lambda( 86)=  0.000000000000
  lambda( 87)=  0.000000000000
  lambda( 88)=  0.000000000000
  lambda( 89)=  0.000000000000
  lambda( 90)=  0.000000000000
  lambda( 91)=  0.000000000000
  lambda( 92)=  0.000000000000
  lambda( 93)=  0.000000000000
  lambda( 94)=  0.000000000000
  lambda( 95)=  0.000000000000
  lambda( 96)=  0.000000000000
  lambda( 97)=  0.000000000000
  lambda( 98)=  0.000000000000
  lambda( 99)=  0.000000000000
  lambda(100)=  0.000000000000
  lambda(101)=  0.000000000000
  lambda(102)=  0.000000000000
  lambda(103)=  0.000000000000
  lambda(104)=  0.000000000000
  lambda(105)=  0.000000000000
  lambda(106)=  0.000000000000
  lambda(107)=  0.000000000000
  lambda(108)=  0.000000000000
  lambda(109)=  0.000000000000
  lambda(110)=  0.000000000000
  lambda(111)=  0.000000000000
  lambda(112)=  0.000000000000
  lambda(113)=  0.000000000000
  lambda(114)=  0.000000000000
  lambda(115)=  0.000000000000
  lambda(116)=  0.000000000000
  lambda(117)=  0.000000000000
  lambda(118)=  0.000000000000
  lambda(119)=  0.000000000000
  lambda(120)=  0.000000000000
  lambda(121)=  0.000005719291
  lambda(122)=  0.000010084178
  lambda(123)=  0.000011694363
  lambda(124)=  0.000011694793
  lambda(125)=  0.000029379630
  lambda(126)=  0.000649718685
  lambda(127)=  0.000649887533
  lambda(128)=  0.000930432291
  lambda(129)=  0.002510399176
  lambda(130)=  0.002866385247
  lambda(131)=  0.004015019441
  lambda(132)=  0.004015408953
  lambda(133)=  0.007260844012
  lambda(134)=  0.014550715995
  lambda(135)=  0.014551088073
  lambda(136)=  0.016389704327
  lambda(137)=  0.019077708102
  lambda(138)=  0.019077755414
  lambda(139)=  0.019265149465
  lambda(140)=  0.029655415226
  lambda(141)=  0.031266922150
  lambda(142)=  0.031286783862
  lambda(143)=  0.035467006801
  lambda(144)=  0.035468959174
  lambda(145)=  0.043533110802
  lambda(146)=  0.043546231648
  lambda(147)=  0.046214220769
  lambda(148)=  0.052782940596
  lambda(149)=  0.052783750807
  lambda(150)=  0.056333343475
  lambda(151)=  0.059282609398
  lambda(152)=  0.059291128137
  lambda(153)=  0.062252613158
  lambda(154)=  0.063188256937
  lambda(155)=  0.063202486892
  lambda(156)=  0.066495522204
  lambda(157)=  0.069454632014
  lambda(158)=  0.070935020814
  lambda(159)=  0.070937254104
  lambda(160)=  0.075500117295
  lambda(161)=  0.079322603343
  lambda(162)=  0.084343710145
  lambda(163)=  0.084343784622
  lambda(164)=  0.084473313170
  lambda(165)=  0.084474338042
  lambda(166)=  0.091456696429
  lambda(167)=  0.091465826979
  lambda(168)=  0.105920887031
  lambda(169)=  0.105928499154
  lambda(170)=  0.106376499940
  lambda(171)=  0.113372658737
  lambda(172)=  0.113372907149
  lambda(173)=  0.122181388869
  lambda(174)=  0.122184497189
  lambda(175)=  0.128851849712
  lambda(176)=  0.128861139140
  lambda(177)=  0.157039209725
  lambda(178)=  0.157039732499
  lambda(179)=  0.164529546975
  lambda(180)=  1.000000000000
  lambda(181)=  1.000000000000
  lambda(182)=  1.000000000000
  lambda(183)=  1.000000000000
  lambda(184)=  1.000000000000
  lambda(185)=  1.000000000000
  lambda(186)=  1.000000000000
  lambda(187)=  1.000000000000
  lambda(188)=  1.000000000000
  lambda(189)=  1.000000000000
  lambda(190)=  1.000000000000
  lambda(191)=  1.000000000000
  lambda(192)=  1.000000000000
  lambda(193)=  1.000000000000
  lambda(194)=  1.000000000000
  lambda(195)=  1.000000000000
  lambda(196)=  1.000000000000
  lambda(197)=  1.000000000000
  lambda(198)=  1.000000000000
  lambda(199)=  1.000000000000
  lambda(200)=  1.000000000000
  lambda(201)=  1.000000000000
  lambda(202)=  1.000000000000
  lambda(203)=  1.000000000000
  lambda(204)=  1.000000000000
  lambda(205)=  1.000000000000
  lambda(206)=  1.000000000000
  lambda(207)=  1.000000000000
  lambda(208)=  1.000000000000
  lambda(209)=  1.000000000000
  lambda(210)=  1.000000000000
  lambda(211)=  1.000000000000
  lambda(212)=  1.000000000000
  lambda(213)=  1.000000000000
  lambda(214)=  1.000000000000
  lambda(215)=  1.000000000000
  lambda(216)=  1.000000000000
  lambda(217)=  1.000000000000
  lambda(218)=  1.000000000000
  lambda(219)=  1.000000000000
  lambda(220)=  1.000000000000
  lambda(221)=  1.000000000000
  lambda(222)=  1.000000000000
  lambda(223)=  1.000000000000
  lambda(224)=  1.000000000000
  lambda(225)=  1.000000000000
  lambda(226)=  1.000000000000
  lambda(227)=  1.000000000000
  lambda(228)=  1.000000000000
  lambda(229)=  1.000000000000
  lambda(230)=  1.000000000000
  lambda(231)=  1.000000000000
  lambda(232)=  1.000000000000
  lambda(233)=  1.000000000000
  lambda(234)=  1.000000000000
  lambda(235)=  1.000000000000
  lambda(236)=  1.000000000000

 K-point   3 ndimwin: 236 we want the 57 leading eigenvector(s) of QPQ
  lambda(  1)= -0.000000000000
  lambda(  2)= -0.000000000000
  lambda(  3)= -0.000000000000
  lambda(  4)= -0.000000000000
  lambda(  5)= -0.000000000000
  lambda(  6)= -0.000000000000
  lambda(  7)= -0.000000000000
  lambda(  8)= -0.000000000000
  lambda(  9)= -0.000000000000
  lambda( 10)= -0.000000000000
  lambda( 11)= -0.000000000000
  lambda( 12)= -0.000000000000
  lambda( 13)= -0.000000000000
  lambda( 14)= -0.000000000000
  lambda( 15)= -0.000000000000
  lambda( 16)= -0.000000000000
  lambda( 17)= -0.000000000000
  lambda( 18)= -0.000000000000
  lambda( 19)= -0.000000000000
  lambda( 20)= -0.000000000000
  lambda( 21)= -0.000000000000
  lambda( 22)= -0.000000000000
  lambda( 23)= -0.000000000000
  lambda( 24)= -0.000000000000
  lambda( 25)= -0.000000000000
  lambda( 26)= -0.000000000000
  lambda( 27)= -0.000000000000
  lambda( 28)= -0.000000000000
  lambda( 29)= -0.000000000000
  lambda( 30)= -0.000000000000
  lambda( 31)= -0.000000000000
  lambda( 32)= -0.000000000000
  lambda( 33)= -0.000000000000
  lambda( 34)= -0.000000000000
  lambda( 35)= -0.000000000000
  lambda( 36)= -0.000000000000
  lambda( 37)= -0.000000000000
  lambda( 38)= -0.000000000000
  lambda( 39)= -0.000000000000
  lambda( 40)= -0.000000000000
  lambda( 41)= -0.000000000000
  lambda( 42)= -0.000000000000
  lambda( 43)= -0.000000000000
  lambda( 44)= -0.000000000000
  lambda( 45)= -0.000000000000
  lambda( 46)= -0.000000000000
  lambda( 47)= -0.000000000000
  lambda( 48)= -0.000000000000
  lambda( 49)= -0.000000000000
  lambda( 50)= -0.000000000000
  lambda( 51)= -0.000000000000
  lambda( 52)= -0.000000000000
  lambda( 53)= -0.000000000000
  lambda( 54)= -0.000000000000
  lambda( 55)= -0.000000000000
  lambda( 56)= -0.000000000000
  lambda( 57)= -0.000000000000
  lambda( 58)= -0.000000000000
  lambda( 59)= -0.000000000000
  lambda( 60)= -0.000000000000
  lambda( 61)=  0.000000000000
  lambda( 62)=  0.000000000000
  lambda( 63)=  0.000000000000
  lambda( 64)=  0.000000000000
  lambda( 65)=  0.000000000000
  lambda( 66)=  0.000000000000
  lambda( 67)=  0.000000000000
  lambda( 68)=  0.000000000000
  lambda( 69)=  0.000000000000
  lambda( 70)=  0.000000000000
  lambda( 71)=  0.000000000000
  lambda( 72)=  0.000000000000
  lambda( 73)=  0.000000000000
  lambda( 74)=  0.000000000000
  lambda( 75)=  0.000000000000
  lambda( 76)=  0.000000000000
  lambda( 77)=  0.000000000000
  lambda( 78)=  0.000000000000
  lambda( 79)=  0.000000000000
  lambda( 80)=  0.000000000000
  lambda( 81)=  0.000000000000
  lambda( 82)=  0.000000000000
  lambda( 83)=  0.000000000000
  lambda( 84)=  0.000000000000
  lambda( 85)=  0.000000000000
  lambda( 86)=  0.000000000000
  lambda( 87)=  0.000000000000
  lambda( 88)=  0.000000000000
  lambda( 89)=  0.000000000000
  lambda( 90)=  0.000000000000
  lambda( 91)=  0.000000000000
  lambda( 92)=  0.000000000000
  lambda( 93)=  0.000000000000
  lambda( 94)=  0.000000000000
  lambda( 95)=  0.000000000000
  lambda( 96)=  0.000000000000
  lambda( 97)=  0.000000000000
  lambda( 98)=  0.000000000000
  lambda( 99)=  0.000000000000
  lambda(100)=  0.000000000000
  lambda(101)=  0.000000000000
  lambda(102)=  0.000000000000
  lambda(103)=  0.000000000000
  lambda(104)=  0.000000000000
  lambda(105)=  0.000000000000
  lambda(106)=  0.000000000000
  lambda(107)=  0.000000000000
  lambda(108)=  0.000000000000
  lambda(109)=  0.000000000000
  lambda(110)=  0.000000000000
  lambda(111)=  0.000000000000
  lambda(112)=  0.000000000000
  lambda(113)=  0.000000000000
  lambda(114)=  0.000000000000
  lambda(115)=  0.000000000000
  lambda(116)=  0.000000000000
  lambda(117)=  0.000000000000
  lambda(118)=  0.000000000000
  lambda(119)=  0.000000000000
  lambda(120)=  0.000000000000
  lambda(121)=  0.000005719226
  lambda(122)=  0.000010084149
  lambda(123)=  0.000011694169
  lambda(124)=  0.000011694660
  lambda(125)=  0.000029380183
  lambda(126)=  0.000649722607
  lambda(127)=  0.000649889171
  lambda(128)=  0.000930444468
  lambda(129)=  0.002510399456
  lambda(130)=  0.002866386369
  lambda(131)=  0.004015009631
  lambda(132)=  0.004015405489
  lambda(133)=  0.007260847782
  lambda(134)=  0.014550717377
  lambda(135)=  0.014551087460
  lambda(136)=  0.016389708948
  lambda(137)=  0.019077714424
  lambda(138)=  0.019077744502
  lambda(139)=  0.019265135725
  lambda(140)=  0.029655467496
  lambda(141)=  0.031266918358
  lambda(142)=  0.031286782191
  lambda(143)=  0.035467007826
  lambda(144)=  0.035468964592
  lambda(145)=  0.043533106851
  lambda(146)=  0.043546266074
  lambda(147)=  0.046214209577
  lambda(148)=  0.052782940674
  lambda(149)=  0.052783750906
  lambda(150)=  0.056333346535
  lambda(151)=  0.059282608792
  lambda(152)=  0.059291127877
  lambda(153)=  0.062252613919
  lambda(154)=  0.063188257566
  lambda(155)=  0.063202487689
  lambda(156)=  0.066495533312
  lambda(157)=  0.069454629020
  lambda(158)=  0.070935020848
  lambda(159)=  0.070937254650
  lambda(160)=  0.075500116779
  lambda(161)=  0.079322609370
  lambda(162)=  0.084343707430
  lambda(163)=  0.084343780799
  lambda(164)=  0.084473313161
  lambda(165)=  0.084474338005
  lambda(166)=  0.091456689166
  lambda(167)=  0.091465821198
  lambda(168)=  0.105920870238
  lambda(169)=  0.105928657482
  lambda(170)=  0.106376502562
  lambda(171)=  0.113372744259
  lambda(172)=  0.113372931873
  lambda(173)=  0.122181388687
  lambda(174)=  0.122184502909
  lambda(175)=  0.128851849404
  lambda(176)=  0.128861141043
  lambda(177)=  0.157039226024
  lambda(178)=  0.157039726564
  lambda(179)=  0.164529549180
  lambda(180)=  1.000000000000
  lambda(181)=  1.000000000000
  lambda(182)=  1.000000000000
  lambda(183)=  1.000000000000
  lambda(184)=  1.000000000000
  lambda(185)=  1.000000000000
  lambda(186)=  1.000000000000
  lambda(187)=  1.000000000000
  lambda(188)=  1.000000000000
  lambda(189)=  1.000000000000
  lambda(190)=  1.000000000000
  lambda(191)=  1.000000000000
  lambda(192)=  1.000000000000
  lambda(193)=  1.000000000000
  lambda(194)=  1.000000000000
  lambda(195)=  1.000000000000
  lambda(196)=  1.000000000000
  lambda(197)=  1.000000000000
  lambda(198)=  1.000000000000
  lambda(199)=  1.000000000000
  lambda(200)=  1.000000000000
  lambda(201)=  1.000000000000
  lambda(202)=  1.000000000000
  lambda(203)=  1.000000000000
  lambda(204)=  1.000000000000
  lambda(205)=  1.000000000000
  lambda(206)=  1.000000000000
  lambda(207)=  1.000000000000
  lambda(208)=  1.000000000000
  lambda(209)=  1.000000000000
  lambda(210)=  1.000000000000
  lambda(211)=  1.000000000000
  lambda(212)=  1.000000000000
  lambda(213)=  1.000000000000
  lambda(214)=  1.000000000000
  lambda(215)=  1.000000000000
  lambda(216)=  1.000000000000
  lambda(217)=  1.000000000000
  lambda(218)=  1.000000000000
  lambda(219)=  1.000000000000
  lambda(220)=  1.000000000000
  lambda(221)=  1.000000000000
  lambda(222)=  1.000000000000
  lambda(223)=  1.000000000000
  lambda(224)=  1.000000000000
  lambda(225)=  1.000000000000
  lambda(226)=  1.000000000000
  lambda(227)=  1.000000000000
  lambda(228)=  1.000000000000
  lambda(229)=  1.000000000000
  lambda(230)=  1.000000000000
  lambda(231)=  1.000000000000
  lambda(232)=  1.000000000000
  lambda(233)=  1.000000000000
  lambda(234)=  1.000000000000
  lambda(235)=  1.000000000000
  lambda(236)=  1.000000000000

 K-point   4 ndimwin: 236 we want the 57 leading eigenvector(s) of QPQ
  lambda(  1)= -0.000000000000
  lambda(  2)= -0.000000000000
  lambda(  3)= -0.000000000000
  lambda(  4)= -0.000000000000
  lambda(  5)= -0.000000000000
  lambda(  6)= -0.000000000000
  lambda(  7)= -0.000000000000
  lambda(  8)= -0.000000000000
  lambda(  9)= -0.000000000000
  lambda( 10)= -0.000000000000
  lambda( 11)= -0.000000000000
  lambda( 12)= -0.000000000000
  lambda( 13)= -0.000000000000
  lambda( 14)= -0.000000000000
  lambda( 15)= -0.000000000000
  lambda( 16)= -0.000000000000
  lambda( 17)= -0.000000000000
  lambda( 18)= -0.000000000000
  lambda( 19)= -0.000000000000
  lambda( 20)= -0.000000000000
  lambda( 21)= -0.000000000000
  lambda( 22)= -0.000000000000
  lambda( 23)= -0.000000000000
  lambda( 24)= -0.000000000000
  lambda( 25)= -0.000000000000
  lambda( 26)= -0.000000000000
  lambda( 27)= -0.000000000000
  lambda( 28)= -0.000000000000
  lambda( 29)= -0.000000000000
  lambda( 30)= -0.000000000000
  lambda( 31)= -0.000000000000
  lambda( 32)= -0.000000000000
  lambda( 33)= -0.000000000000
  lambda( 34)= -0.000000000000
  lambda( 35)= -0.000000000000
  lambda( 36)= -0.000000000000
  lambda( 37)= -0.000000000000
  lambda( 38)= -0.000000000000
  lambda( 39)= -0.000000000000
  lambda( 40)= -0.000000000000
  lambda( 41)= -0.000000000000
  lambda( 42)= -0.000000000000
  lambda( 43)= -0.000000000000
  lambda( 44)= -0.000000000000
  lambda( 45)= -0.000000000000
  lambda( 46)= -0.000000000000
  lambda( 47)= -0.000000000000
  lambda( 48)= -0.000000000000
  lambda( 49)= -0.000000000000
  lambda( 50)= -0.000000000000
  lambda( 51)= -0.000000000000
  lambda( 52)= -0.000000000000
  lambda( 53)= -0.000000000000
  lambda( 54)= -0.000000000000
  lambda( 55)= -0.000000000000
  lambda( 56)= -0.000000000000
  lambda( 57)= -0.000000000000
  lambda( 58)= -0.000000000000
  lambda( 59)= -0.000000000000
  lambda( 60)= -0.000000000000
  lambda( 61)= -0.000000000000
  lambda( 62)= -0.000000000000
  lambda( 63)=  0.000000000000
  lambda( 64)=  0.000000000000
  lambda( 65)=  0.000000000000
  lambda( 66)=  0.000000000000
  lambda( 67)=  0.000000000000
  lambda( 68)=  0.000000000000
  lambda( 69)=  0.000000000000
  lambda( 70)=  0.000000000000
  lambda( 71)=  0.000000000000
  lambda( 72)=  0.000000000000
  lambda( 73)=  0.000000000000
  lambda( 74)=  0.000000000000
  lambda( 75)=  0.000000000000
  lambda( 76)=  0.000000000000
  lambda( 77)=  0.000000000000
  lambda( 78)=  0.000000000000
  lambda( 79)=  0.000000000000
  lambda( 80)=  0.000000000000
  lambda( 81)=  0.000000000000
  lambda( 82)=  0.000000000000
  lambda( 83)=  0.000000000000
  lambda( 84)=  0.000000000000
  lambda( 85)=  0.000000000000
  lambda( 86)=  0.000000000000
  lambda( 87)=  0.000000000000
  lambda( 88)=  0.000000000000
  lambda( 89)=  0.000000000000
  lambda( 90)=  0.000000000000
  lambda( 91)=  0.000000000000
  lambda( 92)=  0.000000000000
  lambda( 93)=  0.000000000000
  lambda( 94)=  0.000000000000
  lambda( 95)=  0.000000000000
  lambda( 96)=  0.000000000000
  lambda( 97)=  0.000000000000
  lambda( 98)=  0.000000000000
  lambda( 99)=  0.000000000000
  lambda(100)=  0.000000000000
  lambda(101)=  0.000000000000
  lambda(102)=  0.000000000000
  lambda(103)=  0.000000000000
  lambda(104)=  0.000000000000
  lambda(105)=  0.000000000000
  lambda(106)=  0.000000000000
  lambda(107)=  0.000000000000
  lambda(108)=  0.000000000000
  lambda(109)=  0.000000000000
  lambda(110)=  0.000000000000
  lambda(111)=  0.000000000000
  lambda(112)=  0.000000000000
  lambda(113)=  0.000000000000
  lambda(114)=  0.000000000000
  lambda(115)=  0.000000000000
  lambda(116)=  0.000000000000
  lambda(117)=  0.000000000000
  lambda(118)=  0.000000000000
  lambda(119)=  0.000000000000
  lambda(120)=  0.000000000000
  lambda(121)=  0.000005719305
  lambda(122)=  0.000010084132
  lambda(123)=  0.000011694353
  lambda(124)=  0.000011694793
  lambda(125)=  0.000029380308
  lambda(126)=  0.000649722617
  lambda(127)=  0.000649888685
  lambda(128)=  0.000930444826
  lambda(129)=  0.002510398232
  lambda(130)=  0.002866384180
  lambda(131)=  0.004015034814
  lambda(132)=  0.004015426453
  lambda(133)=  0.007260846451
  lambda(134)=  0.014550717894
  lambda(135)=  0.014551087862
  lambda(136)=  0.016389709142
  lambda(137)=  0.019077722999
  lambda(138)=  0.019077755682
  lambda(139)=  0.019265146707
  lambda(140)=  0.029655426934
  lambda(141)=  0.031266918992
  lambda(142)=  0.031286782250
  lambda(143)=  0.035467008544
  lambda(144)=  0.035468961098
  lambda(145)=  0.043533099181
  lambda(146)=  0.043546223109
  lambda(147)=  0.046214217873
  lambda(148)=  0.052782940629
  lambda(149)=  0.052783750789
  lambda(150)=  0.056333349438
  lambda(151)=  0.059282609591
  lambda(152)=  0.059291128569
  lambda(153)=  0.062252613647
  lambda(154)=  0.063188257373
  lambda(155)=  0.063202487871
  lambda(156)=  0.066495530946
  lambda(157)=  0.069454625372
  lambda(158)=  0.070935019852
  lambda(159)=  0.070937254127
  lambda(160)=  0.075500117714
  lambda(161)=  0.079322612874
  lambda(162)=  0.084343711390
  lambda(163)=  0.084343785667
  lambda(164)=  0.084473314563
  lambda(165)=  0.084474338043
  lambda(166)=  0.091456687011
  lambda(167)=  0.091465821828
  lambda(168)=  0.105920785640
  lambda(169)=  0.105928481189
  lambda(170)=  0.106376492396
  lambda(171)=  0.113372734178
  lambda(172)=  0.113372974674
  lambda(173)=  0.122181396171
  lambda(174)=  0.122184495284
  lambda(175)=  0.128851853798
  lambda(176)=  0.128861139547
  lambda(177)=  0.157039230462
  lambda(178)=  0.157039719343
  lambda(179)=  0.164529528577
  lambda(180)=  1.000000000000
  lambda(181)=  1.000000000000
  lambda(182)=  1.000000000000
  lambda(183)=  1.000000000000
  lambda(184)=  1.000000000000
  lambda(185)=  1.000000000000
  lambda(186)=  1.000000000000
  lambda(187)=  1.000000000000
  lambda(188)=  1.000000000000
  lambda(189)=  1.000000000000
  lambda(190)=  1.000000000000
  lambda(191)=  1.000000000000
  lambda(192)=  1.000000000000
  lambda(193)=  1.000000000000
  lambda(194)=  1.000000000000
  lambda(195)=  1.000000000000
  lambda(196)=  1.000000000000
  lambda(197)=  1.000000000000
  lambda(198)=  1.000000000000
  lambda(199)=  1.000000000000
  lambda(200)=  1.000000000000
  lambda(201)=  1.000000000000
  lambda(202)=  1.000000000000
  lambda(203)=  1.000000000000
  lambda(204)=  1.000000000000
  lambda(205)=  1.000000000000
  lambda(206)=  1.000000000000
  lambda(207)=  1.000000000000
  lambda(208)=  1.000000000000
  lambda(209)=  1.000000000000
  lambda(210)=  1.000000000000
  lambda(211)=  1.000000000000
  lambda(212)=  1.000000000000
  lambda(213)=  1.000000000000
  lambda(214)=  1.000000000000
  lambda(215)=  1.000000000000
  lambda(216)=  1.000000000000
  lambda(217)=  1.000000000000
  lambda(218)=  1.000000000000
  lambda(219)=  1.000000000000
  lambda(220)=  1.000000000000
  lambda(221)=  1.000000000000
  lambda(222)=  1.000000000000
  lambda(223)=  1.000000000000
  lambda(224)=  1.000000000000
  lambda(225)=  1.000000000000
  lambda(226)=  1.000000000000
  lambda(227)=  1.000000000000
  lambda(228)=  1.000000000000
  lambda(229)=  1.000000000000
  lambda(230)=  1.000000000000
  lambda(231)=  1.000000000000
  lambda(232)=  1.000000000000
  lambda(233)=  1.000000000000
  lambda(234)=  1.000000000000
  lambda(235)=  1.000000000000
  lambda(236)=  1.000000000000

 K-point   5 ndimwin: 236 we want the 62 leading eigenvector(s) of QPQ
  lambda(  1)= -0.000000000000
  lambda(  2)= -0.000000000000
  lambda(  3)= -0.000000000000
  lambda(  4)= -0.000000000000
  lambda(  5)= -0.000000000000
  lambda(  6)= -0.000000000000
  lambda(  7)= -0.000000000000
  lambda(  8)= -0.000000000000
  lambda(  9)= -0.000000000000
  lambda( 10)= -0.000000000000
  lambda( 11)= -0.000000000000
  lambda( 12)= -0.000000000000
  lambda( 13)= -0.000000000000
  lambda( 14)= -0.000000000000
  lambda( 15)= -0.000000000000
  lambda( 16)= -0.000000000000
  lambda( 17)= -0.000000000000
  lambda( 18)= -0.000000000000
  lambda( 19)= -0.000000000000
  lambda( 20)= -0.000000000000
  lambda( 21)= -0.000000000000
  lambda( 22)= -0.000000000000
  lambda( 23)= -0.000000000000
  lambda( 24)= -0.000000000000
  lambda( 25)= -0.000000000000
  lambda( 26)= -0.000000000000
  lambda( 27)= -0.000000000000
  lambda( 28)= -0.000000000000
  lambda( 29)= -0.000000000000
  lambda( 30)= -0.000000000000
  lambda( 31)= -0.000000000000
  lambda( 32)= -0.000000000000
  lambda( 33)= -0.000000000000
  lambda( 34)= -0.000000000000
  lambda( 35)= -0.000000000000
  lambda( 36)= -0.000000000000
  lambda( 37)= -0.000000000000
  lambda( 38)= -0.000000000000
  lambda( 39)= -0.000000000000
  lambda( 40)= -0.000000000000
  lambda( 41)= -0.000000000000
  lambda( 42)= -0.000000000000
  lambda( 43)= -0.000000000000
  lambda( 44)= -0.000000000000
  lambda( 45)= -0.000000000000
  lambda( 46)= -0.000000000000
  lambda( 47)= -0.000000000000
  lambda( 48)= -0.000000000000
  lambda( 49)= -0.000000000000
  lambda( 50)= -0.000000000000
  lambda( 51)= -0.000000000000
  lambda( 52)= -0.000000000000
  lambda( 53)= -0.000000000000
  lambda( 54)= -0.000000000000
  lambda( 55)=  0.000000000000
  lambda( 56)=  0.000000000000
  lambda( 57)=  0.000000000000
  lambda( 58)=  0.000000000000
  lambda( 59)=  0.000000000000
  lambda( 60)=  0.000000000000
  lambda( 61)=  0.000000000000
  lambda( 62)=  0.000000000000
  lambda( 63)=  0.000000000000
  lambda( 64)=  0.000000000000
  lambda( 65)=  0.000000000000
  lambda( 66)=  0.000000000000
  lambda( 67)=  0.000000000000
  lambda( 68)=  0.000000000000
  lambda( 69)=  0.000000000000
  lambda( 70)=  0.000000000000
  lambda( 71)=  0.000000000000
  lambda( 72)=  0.000000000000
  lambda( 73)=  0.000000000000
  lambda( 74)=  0.000000000000
  lambda( 75)=  0.000000000000
  lambda( 76)=  0.000000000000
  lambda( 77)=  0.000000000000
  lambda( 78)=  0.000000000000
  lambda( 79)=  0.000000000000
  lambda( 80)=  0.000000000000
  lambda( 81)=  0.000000000000
  lambda( 82)=  0.000000000000
  lambda( 83)=  0.000000000000
  lambda( 84)=  0.000000000000
  lambda( 85)=  0.000000000000
  lambda( 86)=  0.000000000000
  lambda( 87)=  0.000000000000
  lambda( 88)=  0.000000000000
  lambda( 89)=  0.000000000000
  lambda( 90)=  0.000000000000
  lambda( 91)=  0.000000000000
  lambda( 92)=  0.000000000000
  lambda( 93)=  0.000000000000
  lambda( 94)=  0.000000000000
  lambda( 95)=  0.000000000000
  lambda( 96)=  0.000000000000
  lambda( 97)=  0.000000000000
  lambda( 98)=  0.000000000000
  lambda( 99)=  0.000000000000
  lambda(100)=  0.000000000000
  lambda(101)=  0.000000000000
  lambda(102)=  0.000000000000
  lambda(103)=  0.000000000000
  lambda(104)=  0.000000000000
  lambda(105)=  0.000000000000
  lambda(106)=  0.000000000000
  lambda(107)=  0.000000000000
  lambda(108)=  0.000000000000
  lambda(109)=  0.000000000000
  lambda(110)=  0.000000000000
  lambda(111)=  0.000000000000
  lambda(112)=  0.000000000000
  lambda(113)=  0.000000000000
  lambda(114)=  0.000000000000
  lambda(115)=  0.000000136155
  lambda(116)=  0.000000136184
  lambda(117)=  0.000000136390
  lambda(118)=  0.000014998954
  lambda(119)=  0.000015000569
  lambda(120)=  0.000015005435
  lambda(121)=  0.000043837749
  lambda(122)=  0.000043853394
  lambda(123)=  0.000043905408
  lambda(124)=  0.000483755036
  lambda(125)=  0.000483838402
  lambda(126)=  0.000484036355
  lambda(127)=  0.000895190665
  lambda(128)=  0.000895338054
  lambda(129)=  0.000895875714
  lambda(130)=  0.013958914508
  lambda(131)=  0.013959060517
  lambda(132)=  0.013959106189
  lambda(133)=  0.015903303751
  lambda(134)=  0.019181364047
  lambda(135)=  0.019181529896
  lambda(136)=  0.019181991458
  lambda(137)=  0.030003463310
  lambda(138)=  0.030016058050
  lambda(139)=  0.030016551199
  lambda(140)=  0.032649783666
  lambda(141)=  0.044362016908
  lambda(142)=  0.044363133959
  lambda(143)=  0.044363964956
  lambda(144)=  0.057355057599
  lambda(145)=  0.057555148095
  lambda(146)=  0.057556042530
  lambda(147)=  0.057566025707
  lambda(148)=  0.057566984509
  lambda(149)=  0.057567358576
  lambda(150)=  0.057568109398
  lambda(151)=  0.065625230000
  lambda(152)=  0.065625832327
  lambda(153)=  0.065626082117
  lambda(154)=  0.065626901877
  lambda(155)=  0.065627732372
  lambda(156)=  0.067894241427
  lambda(157)=  0.067899951981
  lambda(158)=  0.067906114837
  lambda(159)=  0.070458953432
  lambda(160)=  0.082007398056
  lambda(161)=  0.082009370316
  lambda(162)=  0.082009918373
  lambda(163)=  0.085063379902
  lambda(164)=  0.085064669796
  lambda(165)=  0.085065810604
  lambda(166)=  0.092288658842
  lambda(167)=  0.092289160122
  lambda(168)=  0.092292464951
  lambda(169)=  0.118703162874
  lambda(170)=  0.118715554614
  lambda(171)=  0.118716221685
  lambda(172)=  0.136759038117
  lambda(173)=  0.136760981904
  lambda(174)=  0.136766026077
  lambda(175)=  1.000000000000
  lambda(176)=  1.000000000000
  lambda(177)=  1.000000000000
  lambda(178)=  1.000000000000
  lambda(179)=  1.000000000000
  lambda(180)=  1.000000000000
  lambda(181)=  1.000000000000
  lambda(182)=  1.000000000000
  lambda(183)=  1.000000000000
  lambda(184)=  1.000000000000
  lambda(185)=  1.000000000000
  lambda(186)=  1.000000000000
  lambda(187)=  1.000000000000
  lambda(188)=  1.000000000000
  lambda(189)=  1.000000000000
  lambda(190)=  1.000000000000
  lambda(191)=  1.000000000000
  lambda(192)=  1.000000000000
  lambda(193)=  1.000000000000
  lambda(194)=  1.000000000000
  lambda(195)=  1.000000000000
  lambda(196)=  1.000000000000
  lambda(197)=  1.000000000000
  lambda(198)=  1.000000000000
  lambda(199)=  1.000000000000
  lambda(200)=  1.000000000000
  lambda(201)=  1.000000000000
  lambda(202)=  1.000000000000
  lambda(203)=  1.000000000000
  lambda(204)=  1.000000000000
  lambda(205)=  1.000000000000
  lambda(206)=  1.000000000000
  lambda(207)=  1.000000000000
  lambda(208)=  1.000000000000
  lambda(209)=  1.000000000000
  lambda(210)=  1.000000000000
  lambda(211)=  1.000000000000
  lambda(212)=  1.000000000000
  lambda(213)=  1.000000000000
  lambda(214)=  1.000000000000
  lambda(215)=  1.000000000000
  lambda(216)=  1.000000000000
  lambda(217)=  1.000000000000
  lambda(218)=  1.000000000000
  lambda(219)=  1.000000000000
  lambda(220)=  1.000000000000
  lambda(221)=  1.000000000000
  lambda(222)=  1.000000000000
  lambda(223)=  1.000000000000
  lambda(224)=  1.000000000000
  lambda(225)=  1.000000000000
  lambda(226)=  1.000000000000
  lambda(227)=  1.000000000000
  lambda(228)=  1.000000000000
  lambda(229)=  1.000000000000
  lambda(230)=  1.000000000000
  lambda(231)=  1.000000000000
  lambda(232)=  1.000000000000
  lambda(233)=  1.000000000000
  lambda(234)=  1.000000000000
  lambda(235)=  1.000000000000
  lambda(236)=  1.000000000000

 K-point   6 ndimwin: 236 we want the 57 leading eigenvector(s) of QPQ
  lambda(  1)= -0.000000000000
  lambda(  2)= -0.000000000000
  lambda(  3)= -0.000000000000
[...]
  WF centre and spread   81  (  1.723315,  0.988077, -0.132705 )     2.15654092
  WF centre and spread   82  (  1.723569,  0.983813,  0.025489 )     2.03577593
  WF centre and spread   83  (  1.723175,  1.011213,  0.025660 )     2.03550216
  WF centre and spread   84  (  1.723315,  0.988077,  3.487010 )     2.15654199
  WF centre and spread   85  (  1.723569,  0.983813,  3.328816 )     2.03577593
  WF centre and spread   86  (  1.723175,  1.011213,  3.328645 )     2.03550218
  WF centre and spread   87  (  5.169462,  0.989040, -0.132712 )     2.15635858
  WF centre and spread   88  (  5.168782,  0.983883,  0.025110 )     2.03622167
  WF centre and spread   89  (  5.169039,  1.010245,  0.025162 )     2.03650662
  WF centre and spread   90  (  5.169462,  0.989040,  3.487017 )     2.15635916
  WF centre and spread   91  (  5.168782,  0.983883,  3.329195 )     2.03622187
  WF centre and spread   92  (  5.169039,  1.010245,  3.329142 )     2.03650688
  WF centre and spread   93  (  8.614494,  0.989289, -0.132677 )     2.15614129
  WF centre and spread   94  (  8.615337,  0.983890,  0.025144 )     2.03639345
  WF centre and spread   95  (  8.615165,  1.010564,  0.025445 )     2.03618025
  WF centre and spread   96  (  8.614494,  0.989290,  3.486982 )     2.15614148
  WF centre and spread   97  (  8.615337,  0.983890,  3.329160 )     2.03639369
  WF centre and spread   98  (  8.615165,  1.010564,  3.328859 )     2.03618048
  WF centre and spread   99  ( 12.061143,  0.988200, -0.132780 )     2.15673496
  WF centre and spread  100  ( 12.060353,  0.983795,  0.025487 )     2.03562612
  WF centre and spread  101  ( 12.061044,  1.010909,  0.025416 )     2.03583846
  WF centre and spread  102  ( 12.061143,  0.988200,  3.487085 )     2.15673564
  WF centre and spread  103  ( 12.060353,  0.983795,  3.328817 )     2.03562620
  WF centre and spread  104  ( 12.061044,  1.010909,  3.328888 )     2.03583858
  WF centre and spread  105  ( 10.337260,  3.973418, -0.132557 )     2.15649351
  WF centre and spread  106  ( 10.338317,  3.968115,  0.025521 )     2.03582947
  WF centre and spread  107  ( 10.338077,  3.994510,  0.025052 )     2.03662665
  WF centre and spread  108  ( 10.337260,  3.973418,  3.486862 )     2.15649451
  WF centre and spread  109  ( 10.338317,  3.968115,  3.328783 )     2.03582971
  WF centre and spread  110  ( 10.338077,  3.994510,  3.329252 )     2.03662683
  WF centre and spread  111  (  8.614980,  6.957110, -0.132462 )     2.15627703
  WF centre and spread  112  (  8.615236,  6.952719,  0.025164 )     2.03650621
  WF centre and spread  113  (  8.615087,  6.979443,  0.025128 )     2.03673064
  WF centre and spread  114  (  8.614980,  6.957110,  3.486767 )     2.15627765
  WF centre and spread  115  (  8.615236,  6.952719,  3.329140 )     2.03650648
  WF centre and spread  116  (  8.615087,  6.979443,  3.329176 )     2.03673085
  WF centre and spread  117  (  6.892078,  9.941573, -0.132612 )     2.15636675
  WF centre and spread  118  (  6.891861,  9.936779,  0.025790 )     2.03523930
  WF centre and spread  119  (  6.892057,  9.963420,  0.025038 )     2.03682450
  WF centre and spread  120  (  6.892078,  9.941573,  3.486917 )     2.15636776
  WF centre and spread  121  (  6.891861,  9.936778,  3.328514 )     2.03523930
  WF centre and spread  122  (  6.892057,  9.963420,  3.329266 )     2.03682464
  WF centre and spread  123  (  3.445681,  9.941100, -0.132279 )     2.15550192
  WF centre and spread  124  (  3.446111,  9.936838,  0.025547 )     2.03598378
  WF centre and spread  125  (  3.446189,  9.963895,  0.025311 )     2.03636567
  WF centre and spread  126  (  3.445681,  9.941100,  3.486583 )     2.15550265
  WF centre and spread  127  (  3.446111,  9.936838,  3.328757 )     2.03598412
  WF centre and spread  128  (  3.446189,  9.963895,  3.328993 )     2.03636602
  WF centre and spread  129  (  0.000237,  9.942152, -0.132846 )     2.15632837
  WF centre and spread  130  ( -0.000452,  9.936772,  0.025404 )     2.03558863
  WF centre and spread  131  ( -0.000063,  9.963743,  0.025072 )     2.03634656
  WF centre and spread  132  (  0.000237,  9.942152,  3.487151 )     2.15632995
  WF centre and spread  133  ( -0.000452,  9.936772,  3.328900 )     2.03558904
  WF centre and spread  134  ( -0.000063,  9.963743,  3.329232 )     2.03634709
  WF centre and spread  135  ( -3.445806,  9.941324, -0.132436 )     2.15584473
  WF centre and spread  136  ( -3.445738,  9.936770,  0.025629 )     2.03593699
  WF centre and spread  137  ( -3.446010,  9.963482,  0.025152 )     2.03683741
  WF centre and spread  138  ( -3.445806,  9.941324,  3.486741 )     2.15584587
  WF centre and spread  139  ( -3.445738,  9.936770,  3.328676 )     2.03593725
  WF centre and spread  140  ( -3.446010,  9.963482,  3.329153 )     2.03683772
  WF centre and spread  141  (  6.891850,  3.973503, -0.132221 )     2.15561254
  WF centre and spread  142  (  6.892241,  3.968343,  0.025236 )     2.03649871
  WF centre and spread  143  (  6.892155,  3.994687,  0.025429 )     2.03670900
  WF centre and spread  144  (  6.891850,  3.973503,  3.486526 )     2.15561354
  WF centre and spread  145  (  6.892241,  3.968342,  3.329069 )     2.03649894
  WF centre and spread  146  (  6.892155,  3.994688,  3.328875 )     2.03670907
  WF centre and spread  147  (  5.169679,  6.956903, -0.132420 )     2.15599973
  WF centre and spread  148  (  5.168791,  6.952640,  0.025327 )     2.03648127
  WF centre and spread  149  (  5.169181,  6.979454,  0.025288 )     2.03655238
  WF centre and spread  150  (  5.169679,  6.956903,  3.486725 )     2.15600053
  WF centre and spread  151  (  5.168791,  6.952640,  3.328977 )     2.03648132
  WF centre and spread  152  (  5.169181,  6.979454,  3.329016 )     2.03655253
  WF centre and spread  153  (  1.723703,  6.957746, -0.132732 )     2.15648860
  WF centre and spread  154  (  1.722587,  6.952420,  0.025489 )     2.03570386
  WF centre and spread  155  (  1.722985,  6.979264,  0.025048 )     2.03629596
  WF centre and spread  156  (  1.723703,  6.957746,  3.487037 )     2.15648946
  WF centre and spread  157  (  1.722587,  6.952420,  3.328815 )     2.03570427
  WF centre and spread  158  (  1.722985,  6.979265,  3.329257 )     2.03629643
  WF centre and spread  159  (  3.447171,  3.973309, -0.132499 )     2.15634373
  WF centre and spread  160  (  3.445370,  3.968195,  0.025440 )     2.03597777
  WF centre and spread  161  (  3.446026,  3.994596,  0.025070 )     2.03672972
  WF centre and spread  162  (  3.447171,  3.973309,  3.486803 )     2.15634496
  WF centre and spread  163  (  3.445370,  3.968195,  3.328864 )     2.03597795
  WF centre and spread  164  (  3.446026,  3.994596,  3.329234 )     2.03672988
  WF centre and spread  165  (  0.000087,  3.973866, -0.133001 )     2.15682021
  WF centre and spread  166  ( -0.000006,  3.968005,  0.025830 )     2.03565299
  WF centre and spread  167  (  0.000083,  3.995410,  0.025761 )     2.03563039
  WF centre and spread  168  (  0.000087,  3.973866,  3.487305 )     2.15682105
  WF centre and spread  169  ( -0.000006,  3.968005,  3.328474 )     2.03565345
  WF centre and spread  170  (  0.000083,  3.995410,  3.328543 )     2.03563064
  WF centre and spread  171  ( -1.724133,  6.957523, -0.132484 )     2.15614440
  WF centre and spread  172  ( -1.722745,  6.952529,  0.025330 )     2.03627060
  WF centre and spread  173  ( -1.723003,  6.979706,  0.025254 )     2.03607759
  WF centre and spread  174  ( -1.724133,  6.957523,  3.486789 )     2.15614550
  WF centre and spread  175  ( -1.722745,  6.952529,  3.328974 )     2.03627100
  WF centre and spread  176  ( -1.723003,  6.979706,  3.329050 )     2.03607801
  Sum of centres and spreads (620.284584,883.383176,295.178807 )   408.78480648
 
         Spreads (Ang^2)       Omega I      =   377.324709229
        ================       Omega D      =     0.002094696
                               Omega OD     =    31.458242794
    Final Spread (Ang^2)       Omega Total  =   408.785046720
 ------------------------------------------------------------------------------
 Final centres (translated to home cell for writing xyz file)
  WF centre    1  ( -0.000017, -0.004667,  1.677154 )
  WF centre    2  (  0.000002,  0.030277,  1.677152 )
  WF centre    3  ( -0.000000, -0.030448,  1.677152 )
  WF centre    4  (  0.000156,  0.183414,  1.677152 )
  WF centre    5  ( -0.000731, -0.175441,  1.677152 )
  WF centre    6  (  3.445591, -0.005544,  1.677154 )
  WF centre    7  (  3.446045,  0.030290,  1.677152 )
  WF centre    8  (  3.446028, -0.030480,  1.677152 )
  WF centre    9  (  3.446787,  0.183583,  1.677152 )
  WF centre   10  (  3.447630, -0.175439,  1.677152 )
  WF centre   11  (  6.892516, -0.004949,  1.677153 )
  WF centre   12  (  6.892084,  0.030284,  1.677152 )
  WF centre   13  (  6.892091, -0.030456,  1.677152 )
  WF centre   14  (  6.891731,  0.183866,  1.677152 )
  WF centre   15  (  6.891859, -0.175708,  1.677152 )
  WF centre   16  ( 10.338294, -0.004729,  1.677153 )
  WF centre   17  ( 10.338130,  0.030286,  1.677152 )
  WF centre   18  ( 10.338133, -0.030479,  1.677152 )
  WF centre   19  ( 10.342292,  0.183866,  1.677152 )
  WF centre   20  ( 10.332220, -0.175352,  1.677152 )
  WF centre   21  (  8.615667,  2.978812,  1.677154 )
  WF centre   22  (  8.615105,  3.014665,  1.677152 )
  WF centre   23  (  8.615108,  2.953891,  1.677152 )
  WF centre   24  (  8.618270,  3.168491,  1.677152 )
  WF centre   25  (  8.611607,  2.807659,  1.677152 )
  WF centre   26  (  6.891378,  5.963694,  1.677153 )
  WF centre   27  (  6.892089,  5.999023,  1.677152 )
  WF centre   28  (  6.892075,  5.938250,  1.677152 )
  WF centre   29  (  6.893395,  6.153821,  1.677152 )
  WF centre   30  (  6.891449,  5.792363,  1.677152 )
  WF centre   31  (  5.168391,  8.948751,  1.677153 )
  WF centre   32  (  5.169057,  8.983390,  1.677152 )
  WF centre   33  (  5.169060,  8.922604,  1.677152 )
  WF centre   34  (  5.173050,  9.137479,  1.677152 )
  WF centre   35  (  5.164819,  8.776304,  1.677152 )
  WF centre   36  (  1.723949,  8.948685,  1.677154 )
  WF centre   37  (  1.723038,  8.983387,  1.677152 )
  WF centre   38  (  1.723035,  8.922612,  1.677152 )
  WF centre   39  (  1.724332,  9.137480,  1.677152 )
  WF centre   40  (  1.719680,  8.776728,  1.677152 )
  WF centre   41  ( -1.724248,  8.948647,  1.677153 )
  WF centre   42  ( -1.723028,  8.983386,  1.677152 )
  WF centre   43  ( -1.723038,  8.922593,  1.677152 )
  WF centre   44  ( -1.722507,  9.137717,  1.677152 )
  WF centre   45  ( -1.722296,  8.776699,  1.677152 )
  WF centre   46  ( -5.168019,  8.948767,  1.677153 )
  WF centre   47  ( -5.169062,  8.983381,  1.677152 )
  WF centre   48  ( -5.169064,  8.922613,  1.677152 )
  WF centre   49  ( -5.170201,  9.137407,  1.677152 )
  WF centre   50  ( -5.167438,  8.776295,  1.677152 )
  WF centre   51  (  5.168955,  2.979575,  1.677154 )
  WF centre   52  (  5.169068,  3.014666,  1.677152 )
  WF centre   53  (  5.169062,  2.953903,  1.677152 )
  WF centre   54  (  5.167932,  3.167957,  1.677152 )
  WF centre   55  (  5.169704,  2.807684,  1.677152 )
  WF centre   56  (  3.445197,  5.963638,  1.677153 )
  WF centre   57  (  3.446050,  5.999006,  1.677152 )
  WF centre   58  (  3.446037,  5.938259,  1.677152 )
  WF centre   59  (  3.446162,  6.153065,  1.677153 )
  WF centre   60  (  3.446048,  5.792810,  1.677152 )
  WF centre   61  (  0.000179,  5.962263,  1.677153 )
  WF centre   62  ( -0.000008,  5.999000,  1.677152 )
  WF centre   63  ( -0.000002,  5.938270,  1.677152 )
  WF centre   64  (  0.003275,  6.153829,  1.677152 )
  WF centre   65  ( -0.003535,  5.793676,  1.677152 )
  WF centre   66  (  1.721021,  2.980667,  1.677153 )
  WF centre   67  (  1.723041,  3.014645,  1.677152 )
  WF centre   68  (  1.723010,  2.953905,  1.677152 )
  WF centre   69  (  1.726065,  3.168481,  1.677152 )
  WF centre   70  (  1.721802,  2.808717,  1.677152 )
  WF centre   71  ( -1.721535,  2.980179,  1.677154 )
  WF centre   72  ( -1.723038,  3.014639,  1.677152 )
  WF centre   73  ( -1.723015,  2.953909,  1.677152 )
  WF centre   74  ( -1.723343,  3.168279,  1.677152 )
  WF centre   75  ( -1.724395,  2.808622,  1.677152 )
  WF centre   76  ( -3.444350,  5.964071,  1.677154 )
  WF centre   77  ( -3.446042,  5.999016,  1.677152 )
  WF centre   78  ( -3.446030,  5.938258,  1.677152 )
  WF centre   79  ( -3.445944,  6.153118,  1.677152 )
  WF centre   80  ( -3.447283,  5.792938,  1.677152 )
  WF centre   81  (  1.723315,  0.988077, -0.132705 )
  WF centre   82  (  1.723569,  0.983813,  0.025489 )
  WF centre   83  (  1.723175,  1.011213,  0.025660 )
  WF centre   84  (  1.723315,  0.988077,  3.487010 )
  WF centre   85  (  1.723569,  0.983813,  3.328816 )
  WF centre   86  (  1.723175,  1.011213,  3.328645 )
  WF centre   87  (  5.169462,  0.989040, -0.132712 )
  WF centre   88  (  5.168782,  0.983883,  0.025110 )
  WF centre   89  (  5.169039,  1.010245,  0.025162 )
  WF centre   90  (  5.169462,  0.989040,  3.487017 )
  WF centre   91  (  5.168782,  0.983883,  3.329195 )
  WF centre   92  (  5.169039,  1.010245,  3.329142 )
  WF centre   93  (  8.614494,  0.989289, -0.132677 )
  WF centre   94  (  8.615337,  0.983890,  0.025144 )
  WF centre   95  (  8.615165,  1.010564,  0.025445 )
  WF centre   96  (  8.614494,  0.989290,  3.486982 )
  WF centre   97  (  8.615337,  0.983890,  3.329160 )
  WF centre   98  (  8.615165,  1.010564,  3.328859 )
  WF centre   99  ( 12.061143,  0.988200, -0.132780 )
  WF centre  100  ( 12.060353,  0.983795,  0.025487 )
  WF centre  101  ( 12.061044,  1.010909,  0.025416 )
  WF centre  102  ( 12.061143,  0.988200,  3.487085 )
  WF centre  103  ( 12.060353,  0.983795,  3.328817 )
  WF centre  104  ( 12.061044,  1.010909,  3.328888 )
  WF centre  105  ( 10.337260,  3.973418, -0.132557 )
  WF centre  106  ( 10.338317,  3.968115,  0.025521 )
  WF centre  107  ( 10.338077,  3.994510,  0.025052 )
  WF centre  108  ( 10.337260,  3.973418,  3.486862 )
  WF centre  109  ( 10.338317,  3.968115,  3.328783 )
  WF centre  110  ( 10.338077,  3.994510,  3.329252 )
  WF centre  111  (  8.614980,  6.957110, -0.132462 )
  WF centre  112  (  8.615236,  6.952719,  0.025164 )
  WF centre  113  (  8.615087,  6.979443,  0.025128 )
  WF centre  114  (  8.614980,  6.957110,  3.486767 )
  WF centre  115  (  8.615236,  6.952719,  3.329140 )
  WF centre  116  (  8.615087,  6.979443,  3.329176 )
  WF centre  117  (  6.892078,  9.941573, -0.132612 )
  WF centre  118  (  6.891861,  9.936779,  0.025790 )
  WF centre  119  (  6.892057,  9.963420,  0.025038 )
  WF centre  120  (  6.892078,  9.941573,  3.486917 )
  WF centre  121  (  6.891861,  9.936778,  3.328514 )
  WF centre  122  (  6.892057,  9.963420,  3.329266 )
  WF centre  123  (  3.445681,  9.941100, -0.132279 )
  WF centre  124  (  3.446111,  9.936838,  0.025547 )
  WF centre  125  (  3.446189,  9.963895,  0.025311 )
  WF centre  126  (  3.445681,  9.941100,  3.486583 )
  WF centre  127  (  3.446111,  9.936838,  3.328757 )
  WF centre  128  (  3.446189,  9.963895,  3.328993 )
  WF centre  129  (  0.000237,  9.942152, -0.132846 )
  WF centre  130  ( -0.000452,  9.936772,  0.025404 )
  WF centre  131  ( -0.000063,  9.963743,  0.025072 )
  WF centre  132  (  0.000237,  9.942152,  3.487151 )
  WF centre  133  ( -0.000452,  9.936772,  3.328900 )
  WF centre  134  ( -0.000063,  9.963743,  3.329232 )
  WF centre  135  ( -3.445806,  9.941324, -0.132436 )
  WF centre  136  ( -3.445738,  9.936770,  0.025629 )
  WF centre  137  ( -3.446010,  9.963482,  0.025152 )
  WF centre  138  ( -3.445806,  9.941324,  3.486741 )
  WF centre  139  ( -3.445738,  9.936770,  3.328676 )
  WF centre  140  ( -3.446010,  9.963482,  3.329153 )
  WF centre  141  (  6.891850,  3.973503, -0.132221 )
  WF centre  142  (  6.892241,  3.968343,  0.025236 )
  WF centre  143  (  6.892155,  3.994687,  0.025429 )
  WF centre  144  (  6.891850,  3.973503,  3.486526 )
  WF centre  145  (  6.892241,  3.968342,  3.329069 )
  WF centre  146  (  6.892155,  3.994688,  3.328875 )
  WF centre  147  (  5.169679,  6.956903, -0.132420 )
  WF centre  148  (  5.168791,  6.952640,  0.025327 )
  WF centre  149  (  5.169181,  6.979454,  0.025288 )
  WF centre  150  (  5.169679,  6.956903,  3.486725 )
  WF centre  151  (  5.168791,  6.952640,  3.328977 )
  WF centre  152  (  5.169181,  6.979454,  3.329016 )
  WF centre  153  (  1.723703,  6.957746, -0.132732 )
  WF centre  154  (  1.722587,  6.952420,  0.025489 )
  WF centre  155  (  1.722985,  6.979264,  0.025048 )
  WF centre  156  (  1.723703,  6.957746,  3.487037 )
  WF centre  157  (  1.722587,  6.952420,  3.328815 )
  WF centre  158  (  1.722985,  6.979265,  3.329257 )
  WF centre  159  (  3.447171,  3.973309, -0.132499 )
  WF centre  160  (  3.445370,  3.968195,  0.025440 )
  WF centre  161  (  3.446026,  3.994596,  0.025070 )
  WF centre  162  (  3.447171,  3.973309,  3.486803 )
  WF centre  163  (  3.445370,  3.968195,  3.328864 )
  WF centre  164  (  3.446026,  3.994596,  3.329234 )
  WF centre  165  (  0.000087,  3.973866, -0.133001 )
  WF centre  166  ( -0.000006,  3.968005,  0.025830 )
  WF centre  167  (  0.000083,  3.995410,  0.025761 )
  WF centre  168  (  0.000087,  3.973866,  3.487305 )
  WF centre  169  ( -0.000006,  3.968005,  3.328474 )
  WF centre  170  (  0.000083,  3.995410,  3.328543 )
  WF centre  171  ( -1.724133,  6.957523, -0.132484 )
  WF centre  172  ( -1.722745,  6.952529,  0.025330 )
  WF centre  173  ( -1.723003,  6.979706,  0.025254 )
  WF centre  174  ( -1.724133,  6.957523,  3.486789 )
  WF centre  175  ( -1.722745,  6.952529,  3.328974 )
  WF centre  176  ( -1.723003,  6.979706,  3.329050 )
 ------------------------------------------------------------------------------
 

 Wannier centres written to file 1Fe_initialconf.down_centres.xyz
  
  Omega Invariant:   1-s^2 =   377.324709229 (Ang^2)
                   -2log s =   390.472264650 (Ang^2)
                    acos^2 =   385.970851366 (Ang^2)
 Time for wannierise           36.821 (sec)

 Writing checkpoint file 1Fe_initialconf.down.chk... done

 *---------------------------------------------------------------------------*
 |                               PLOTTING                                    |
 *---------------------------------------------------------------------------*
 
    9 lattice points in Wigner-Seitz supercell:

      vector  -1  -2   0   degeneracy:  1
      vector  -1  -1   0   degeneracy:  1
      vector  -1   0   0   degeneracy:  1
      vector   0  -1   0   degeneracy:  1
      vector   0   0   0   degeneracy:  1
      vector   0   1   0   degeneracy:  1
      vector   1   0   0   degeneracy:  1
      vector   1   1   0   degeneracy:  1
      vector   1   2   0   degeneracy:  1
  tot =        9.000
  mp_grid product =            9
 
 Calculating interpolated band-structure
 
 Time to calculate interpolated band structure      10.920 (sec)
 
 Time for plotting             12.585 (sec)
 Total Execution Time         115.024 (sec)

 *===========================================================================*
 |                             TIMING INFORMATION                            |
 *===========================================================================*
 |    Tag                                                Ncalls      Time (s)|
 |---------------------------------------------------------------------------|
 |kmesh: get                                        :         1         0.021|
 |overlap: allocate                                 :         1         0.004|
 |overlap: read                                     :         1        16.217|
 |dis: main                                         :         1        49.301|
 |wann: main                                        :         1        36.821|
 |plot: main                                        :         1        12.585|
 *---------------------------------------------------------------------------*
 
 All done: wannier90 exiting
