
     Program PWSCF v.6.8 starts on  4Oct2023 at 14:25:56 

     This program is part of the open-source Quantum ESPRESSO suite
     for quantum simulation of materials; please cite
         "P. Giannozzi et al., J. Phys.:Condens. Matter 21 395502 (2009);
         "P. Giannozzi et al., J. Phys.:Condens. Matter 29 465901 (2017);
         "P. Giannozzi et al., J. Chem. Phys. 152 154105 (2020);
          URL http://www.quantum-espresso.org", 
     in publications or presentations arising from this work. More details at
     http://www.quantum-espresso.org/quote

     Parallel version (MPI & OpenMP), running on     144 processor cores
     Number of MPI processes:               144
     Threads/MPI process:                     1

     MPI processes distributed on     2 nodes
     R & G space division:  proc/nbgrp/npool/nimage =     144
     474358 MiB available memory on the printing compute node when the environment starts
 
     Reading input from 1Fe_initialconf.scf.in

     Current dimensions of program PWSCF are:
     Max number of different atomic species (ntypx) = 10
     Max number of k-points (npk) =  40000
     Max angular momentum in pseudopotentials (lmaxx) =  4
     file Nb.pbe-spn-kjpaw_psl.1.0.0.UPF: wavefunction(s)  4S 4P 4D renormalized
     file Se.pbe-n-kjpaw_psl.1.0.0.UPF: wavefunction(s)  4S renormalized
     Found symmetry operation: I + (  0.2500  0.0000  0.0000)
     This is a supercell, fractional translations are disabled

     Subspace diagonalization in iterative solution of the eigenvalue problem:
     one sub-group per band group will be used
     scalapack distributed-memory algorithm (size of sub-group: 12* 12 procs)

 
     Parallelization info
     --------------------
     sticks:   dense  smooth     PW     G-vecs:    dense   smooth      PW
     Min         194      97     25                45218    15983    2109
     Max         195      98     26                45237    15998    2118
     Sum       28063   13999   3643              6513055  2302489  304271
 
     Using Slab Decomposition
 


     bravais-lattice index     =            4
     lattice parameter (alat)  =      26.0483  a.u.
     unit-cell volume          =   26240.8884 (a.u.)^3
     number of atoms/cell      =           48
     number of atomic types    =            2
     number of electrons       =       400.00
     number of Kohn-Sham states=          240
     kinetic-energy cutoff     =      75.0000  Ry
     charge density cutoff     =     600.0000  Ry
     scf convergence threshold =      1.0E-07
     mixing beta               =       0.7000
     number of iterations used =            8  local-TF  mixing
     Exchange-correlation= SLA  PW   PBX  PBC
                           (   1   4   3   4   0   0   0)

     celldm(1)=  26.048308  celldm(2)=   0.000000  celldm(3)=   1.714389
     celldm(4)=   0.000000  celldm(5)=   0.000000  celldm(6)=   0.000000

     crystal axes: (cart. coord. in units of alat)
               a(1) = (   1.000000   0.000000   0.000000 )  
               a(2) = (  -0.500000   0.866025   0.000000 )  
               a(3) = (   0.000000   0.000000   1.714389 )  

     reciprocal axes: (cart. coord. in units 2 pi/alat)
               b(1) = (  1.000000  0.577350  0.000000 )  
               b(2) = (  0.000000  1.154701  0.000000 )  
               b(3) = (  0.000000  0.000000  0.583298 )  


     PseudoPot. # 1 for Nb read from file:
     /u/jojaibal/QuantumEspresso/pseudopotentials/Nb.pbe-spn-kjpaw_psl.1.0.0.UPF
     MD5 check sum: dcedcbb129af9a7271e4748e5febedb1
     Pseudo is Projector augmented-wave + core cor, Zval = 13.0
     Generated using &quot;atomic&quot; code by A. Dal Corso  v.6.2.2
     Shape of augmentation charge: PSQ
     Using radial grid of 1227 points,  6 beta functions with: 
                l(1) =   0
                l(2) =   0
                l(3) =   1
                l(4) =   1
                l(5) =   2
                l(6) =   2
     Q(r) pseudized with 0 coefficients 


     PseudoPot. # 2 for Se read from file:
     /u/jojaibal/QuantumEspresso/pseudopotentials/Se.pbe-n-kjpaw_psl.1.0.0.UPF
     MD5 check sum: 12232cb78b362a7b0fca8da9cb95fd5e
     Pseudo is Projector augmented-wave + core cor, Zval =  6.0
     Generated using &quot;atomic&quot; code by A. Dal Corso  v.6.3
     Shape of augmentation charge: PSQ
     Using radial grid of 1211 points,  4 beta functions with: 
                l(1) =   0
                l(2) =   0
                l(3) =   1
                l(4) =   1
     Q(r) pseudized with 0 coefficients 


     atomic species   valence    mass     pseudopotential
        Nb            13.00    92.90638     Nb( 1.00)
        Se             6.00    78.96000     Se( 1.00)

     Starting magnetic structure 
     atomic species   magnetization
        Nb           0.000
        Se           0.000

      6 Sym. Ops. (no inversion) found



   Cartesian axes

     site n.     atom                  positions (alat units)
         1           Nb  tau(   1) = (   0.0000000   0.0000000   0.1216723  )
         2           Se  tau(   2) = (   0.1250000   0.0721688   0.0000000  )
         3           Se  tau(   3) = (   0.1250000   0.0721688   0.2433446  )
         4           Nb  tau(   4) = (   0.2500000   0.0000000   0.1216723  )
         5           Se  tau(   5) = (   0.3750000   0.0721688   0.0000000  )
         6           Se  tau(   6) = (   0.3750000   0.0721688   0.2433446  )
         7           Nb  tau(   7) = (   0.5000000   0.0000000   0.1216723  )
         8           Se  tau(   8) = (   0.6250000   0.0721688   0.0000000  )
         9           Se  tau(   9) = (   0.6250000   0.0721688   0.2433446  )
        10           Nb  tau(  10) = (   0.7500000   0.0000000   0.1216723  )
        11           Se  tau(  11) = (   0.8750000   0.0721688   0.0000000  )
        12           Se  tau(  12) = (   0.8750000   0.0721688   0.2433446  )
        13           Nb  tau(  13) = (   0.6250000   0.2165064   0.1216723  )
        14           Se  tau(  14) = (   0.7500000   0.2886751   0.0000000  )
        15           Se  tau(  15) = (   0.7500000   0.2886751   0.2433446  )
        16           Nb  tau(  16) = (   0.5000000   0.4330127   0.1216723  )
        17           Se  tau(  17) = (   0.6250000   0.5051815   0.0000000  )
        18           Se  tau(  18) = (   0.6250000   0.5051815   0.2433446  )
        19           Nb  tau(  19) = (   0.3750000   0.6495191   0.1216723  )
        20           Se  tau(  20) = (   0.5000000   0.7216878   0.0000000  )
        21           Se  tau(  21) = (   0.5000000   0.7216878   0.2433446  )
        22           Nb  tau(  22) = (   0.1250000   0.6495191   0.1216723  )
        23           Se  tau(  23) = (   0.2500000   0.7216878   0.0000000  )
        24           Se  tau(  24) = (   0.2500000   0.7216878   0.2433446  )
        25           Nb  tau(  25) = (  -0.1250000   0.6495191   0.1216723  )
        26           Se  tau(  26) = (   0.0000000   0.7216878   0.0000000  )
        27           Se  tau(  27) = (   0.0000000   0.7216878   0.2433446  )
        28           Nb  tau(  28) = (  -0.3750000   0.6495191   0.1216723  )
        29           Se  tau(  29) = (  -0.2500000   0.7216878   0.0000000  )
        30           Se  tau(  30) = (  -0.2500000   0.7216878   0.2433446  )
        31           Nb  tau(  31) = (   0.3750000   0.2165064   0.1216723  )
        32           Se  tau(  32) = (   0.5000000   0.2886751   0.0000000  )
        33           Se  tau(  33) = (   0.5000000   0.2886751   0.2433446  )
        34           Nb  tau(  34) = (   0.2500000   0.4330127   0.1216723  )
        35           Se  tau(  35) = (   0.3750000   0.5051815   0.0000000  )
        36           Se  tau(  36) = (   0.3750000   0.5051815   0.2433446  )
        37           Nb  tau(  37) = (   0.0000000   0.4330127   0.1216723  )
        38           Se  tau(  38) = (   0.1250000   0.5051815   0.0000000  )
        39           Se  tau(  39) = (   0.1250000   0.5051815   0.2433446  )
        40           Nb  tau(  40) = (   0.1250000   0.2165064   0.1216723  )
        41           Se  tau(  41) = (   0.2500000   0.2886751   0.0000000  )
        42           Se  tau(  42) = (   0.2500000   0.2886751   0.2433446  )
        43           Nb  tau(  43) = (  -0.1250000   0.2165064   0.1216723  )
        44           Se  tau(  44) = (   0.0000000   0.2886751   0.0000000  )
        45           Se  tau(  45) = (   0.0000000   0.2886751   0.2433446  )
        46           Nb  tau(  46) = (  -0.2500000   0.4330127   0.1216723  )
        47           Se  tau(  47) = (  -0.1250000   0.5051815   0.0000000  )
        48           Se  tau(  48) = (  -0.1250000   0.5051815   0.2433446  )

     number of k points=     7  Methfessel-Paxton smearing, width (Ry)=  0.0200
                       cart. coord. in units 2pi/alat
        k(    1) = (   0.0000000   0.0000000   0.0000000), wk =   0.0277778
        k(    2) = (   0.0000000   0.1924501   0.0000000), wk =   0.1666667
        k(    3) = (   0.0000000   0.3849002   0.0000000), wk =   0.1666667
        k(    4) = (   0.0000000  -0.5773503   0.0000000), wk =   0.0833333
        k(    5) = (   0.1666667   0.2886751   0.0000000), wk =   0.1666667
        k(    6) = (   0.1666667   0.4811252   0.0000000), wk =   0.3333333
        k(    7) = (   0.3333333   0.5773503   0.0000000), wk =   0.0555556

     Dense  grid:  6513055 G-vectors     FFT dimensions: ( 216, 216, 360)

     Smooth grid:  2302489 G-vectors     FFT dimensions: ( 144, 144, 250)

     Estimated max dynamical RAM per process >     330.14 MB

     Estimated total dynamical RAM >      46.43 GB
     Generating pointlists ...
     new r_m :   0.0779 (alat units)  2.0284 (a.u.) for type    1
     new r_m :   0.0779 (alat units)  2.0284 (a.u.) for type    2

     Initial potential from superposition of free atoms

     starting charge  399.97664, renormalised to  400.00000

     negative rho (up, down):  1.182E-03 1.182E-03
     Starting wfcs are  336 randomized atomic wfcs
     Checking if some PAW data can be deallocated... 

     total cpu time spent up to now is       24.1 secs

     Self-consistent Calculation

     iteration #  1     ecut=    75.00 Ry     beta= 0.70
     Davidson diagonalization with overlap
     ethr =  1.00E-02,  avg # of iterations =  2.0

     Threshold (ethr) on eigenvalues was too large:
     Diagonalizing with lowered threshold

     Davidson diagonalization with overlap
     ethr =  3.13E-04,  avg # of iterations =  2.7

     negative rho (up, down):  1.264E-06 1.264E-06

     total cpu time spent up to now is       88.4 secs

     total energy              =  -11409.83822835 Ry
     estimated scf accuracy    <       1.56979422 Ry

     total magnetization       =    -0.00 Bohr mag/cell
     absolute magnetization    =     0.01 Bohr mag/cell

     iteration #  2     ecut=    75.00 Ry     beta= 0.70
     Davidson diagonalization with overlap
     ethr =  3.92E-04,  avg # of iterations =  1.0

     total cpu time spent up to now is      112.8 secs

     total energy              =  -11409.60435702 Ry
     estimated scf accuracy    <       0.68899788 Ry

     total magnetization       =    -0.00 Bohr mag/cell
     absolute magnetization    =     0.01 Bohr mag/cell

     iteration #  3     ecut=    75.00 Ry     beta= 0.70
     Davidson diagonalization with overlap
     ethr =  1.72E-04,  avg # of iterations =  2.0

     negative rho (up, down):  1.385E-08 1.385E-08

     total cpu time spent up to now is      146.2 secs

     total energy              =  -11409.72004628 Ry
     estimated scf accuracy    <       0.06935356 Ry

     total magnetization       =    -0.00 Bohr mag/cell
     absolute magnetization    =     0.00 Bohr mag/cell

     iteration #  4     ecut=    75.00 Ry     beta= 0.70
     Davidson diagonalization with overlap
     ethr =  1.73E-05,  avg # of iterations =  2.0

     total cpu time spent up to now is      177.9 secs

     total energy              =  -11409.71752961 Ry
     estimated scf accuracy    <       0.04290942 Ry

     total magnetization       =    -0.00 Bohr mag/cell
     absolute magnetization    =     0.00 Bohr mag/cell

     iteration #  5     ecut=    75.00 Ry     beta= 0.70
     Davidson diagonalization with overlap
     ethr =  1.07E-05,  avg # of iterations =  2.4

     total cpu time spent up to now is      206.3 secs

     total energy              =  -11409.71348012 Ry
     estimated scf accuracy    <       0.02598306 Ry

     total magnetization       =    -0.00 Bohr mag/cell
     absolute magnetization    =     0.00 Bohr mag/cell

     iteration #  6     ecut=    75.00 Ry     beta= 0.70
     Davidson diagonalization with overlap
     ethr =  6.50E-06,  avg # of iterations =  3.6

     negative rho (up, down):  5.794E-03 5.796E-03

     total cpu time spent up to now is      236.4 secs

     total energy              =  -11409.71084806 Ry
     estimated scf accuracy    <       0.01425360 Ry

     total magnetization       =    -0.00 Bohr mag/cell
     absolute magnetization    =     0.00 Bohr mag/cell

     iteration #  7     ecut=    75.00 Ry     beta= 0.70
     Davidson diagonalization with overlap
     ethr =  3.56E-06,  avg # of iterations =  4.0

     negative rho (up, down):  1.106E-02 1.106E-02

     total cpu time spent up to now is      271.5 secs

     total energy              =  -11409.71111657 Ry
     estimated scf accuracy    <       0.00661482 Ry

     total magnetization       =    -0.00 Bohr mag/cell
     absolute magnetization    =     0.00 Bohr mag/cell

     iteration #  8     ecut=    75.00 Ry     beta= 0.70
     Davidson diagonalization with overlap
     ethr =  1.65E-06,  avg # of iterations =  2.4

     negative rho (up, down):  2.887E-02 2.887E-02

     total cpu time spent up to now is      300.0 secs

     total energy              =  -11409.71135192 Ry
     estimated scf accuracy    <       0.00398187 Ry

     total magnetization       =    -0.00 Bohr mag/cell
     absolute magnetization    =     0.00 Bohr mag/cell

     iteration #  9     ecut=    75.00 Ry     beta= 0.70
     Davidson diagonalization with overlap
     ethr =  9.95E-07,  avg # of iterations =  2.7

     negative rho (up, down):  2.649E-02 2.649E-02

     total cpu time spent up to now is      334.7 secs

     total energy              =  -11409.71152545 Ry
     estimated scf accuracy    <       0.00146697 Ry

     total magnetization       =    -0.00 Bohr mag/cell
     absolute magnetization    =     0.00 Bohr mag/cell

     iteration # 10     ecut=    75.00 Ry     beta= 0.70
     Davidson diagonalization with overlap
     ethr =  3.67E-07,  avg # of iterations =  1.6

     negative rho (up, down):  1.031E-02 1.031E-02

     total cpu time spent up to now is      362.9 secs

     total energy              =  -11409.71133697 Ry
     estimated scf accuracy    <       0.00047785 Ry

     total magnetization       =    -0.00 Bohr mag/cell
     absolute magnetization    =     0.00 Bohr mag/cell

     iteration # 11     ecut=    75.00 Ry     beta= 0.70
     Davidson diagonalization with overlap
     ethr =  1.19E-07,  avg # of iterations =  2.0

     negative rho (up, down):  4.925E-03 4.925E-03

     total cpu time spent up to now is      397.5 secs

     total energy              =  -11409.71144257 Ry
     estimated scf accuracy    <       0.00007242 Ry

     total magnetization       =    -0.00 Bohr mag/cell
     absolute magnetization    =     0.00 Bohr mag/cell

     iteration # 12     ecut=    75.00 Ry     beta= 0.70
     Davidson diagonalization with overlap
     ethr =  1.81E-08,  avg # of iterations =  3.9

     negative rho (up, down):  1.651E-03 1.651E-03

     total cpu time spent up to now is      429.1 secs

     total energy              =  -11409.71147579 Ry
     estimated scf accuracy    <       0.00001414 Ry

     total magnetization       =    -0.00 Bohr mag/cell
     absolute magnetization    =     0.00 Bohr mag/cell

     iteration # 13     ecut=    75.00 Ry     beta= 0.70
     Davidson diagonalization with overlap
     ethr =  3.54E-09,  avg # of iterations =  5.0

     negative rho (up, down):  1.345E-03 1.345E-03

     total cpu time spent up to now is      467.3 secs

     total energy              =  -11409.71148354 Ry
     estimated scf accuracy    <       0.00000249 Ry

     total magnetization       =    -0.00 Bohr mag/cell
     absolute magnetization    =     0.00 Bohr mag/cell

     iteration # 14     ecut=    75.00 Ry     beta= 0.70
     Davidson diagonalization with overlap
     ethr =  6.24E-10,  avg # of iterations =  4.7

     negative rho (up, down):  1.242E-03 1.242E-03

     total cpu time spent up to now is      502.4 secs

     total energy              =  -11409.71148500 Ry
     estimated scf accuracy    <       0.00000014 Ry

     total magnetization       =    -0.00 Bohr mag/cell
     absolute magnetization    =     0.00 Bohr mag/cell

     iteration # 15     ecut=    75.00 Ry     beta= 0.70
     Davidson diagonalization with overlap
     ethr =  3.46E-11,  avg # of iterations =  5.9

     negative rho (up, down):  1.240E-03 1.240E-03

     total cpu time spent up to now is      547.7 secs

     total energy              =  -11409.71148484 Ry
     estimated scf accuracy    <       0.00000015 Ry

     total magnetization       =    -0.00 Bohr mag/cell
     absolute magnetization    =     0.00 Bohr mag/cell

     iteration # 16     ecut=    75.00 Ry     beta= 0.70
     Davidson diagonalization with overlap
     ethr =  3.46E-11,  avg # of iterations =  1.3

     negative rho (up, down):  1.228E-03 1.228E-03
 
     Magnetic moment per site  (integrated on atomic sphere of radius R)
     atom   1 (R=0.078)  charge= 10.1060  magn=  0.0000
     atom   2 (R=0.078)  charge=  4.0435  magn=  0.0000
     atom   3 (R=0.078)  charge=  4.0435  magn=  0.0000
     atom   4 (R=0.078)  charge= 10.1060  magn= -0.0000
     atom   5 (R=0.078)  charge=  4.0435  magn= -0.0000
     atom   6 (R=0.078)  charge=  4.0435  magn= -0.0000
     atom   7 (R=0.078)  charge= 10.1060  magn= -0.0000
     atom   8 (R=0.078)  charge=  4.0435  magn= -0.0000
     atom   9 (R=0.078)  charge=  4.0435  magn= -0.0000
     atom  10 (R=0.078)  charge= 10.1060  magn= -0.0000
     atom  11 (R=0.078)  charge=  4.0435  magn=  0.0000
     atom  12 (R=0.078)  charge=  4.0435  magn=  0.0000
     atom  13 (R=0.078)  charge= 10.1060  magn=  0.0000
     atom  14 (R=0.078)  charge=  4.0435  magn= -0.0000
     atom  15 (R=0.078)  charge=  4.0435  magn= -0.0000
     atom  16 (R=0.078)  charge= 10.1060  magn=  0.0000
     atom  17 (R=0.078)  charge=  4.0435  magn= -0.0000
     atom  18 (R=0.078)  charge=  4.0435  magn= -0.0000
     atom  19 (R=0.078)  charge= 10.1060  magn= -0.0000
     atom  20 (R=0.078)  charge=  4.0435  magn=  0.0000
     atom  21 (R=0.078)  charge=  4.0435  magn=  0.0000
     atom  22 (R=0.078)  charge= 10.1059  magn= -0.0001
     atom  23 (R=0.078)  charge=  4.0435  magn= -0.0000
     atom  24 (R=0.078)  charge=  4.0435  magn= -0.0000
     atom  25 (R=0.078)  charge= 10.1059  magn= -0.0001
     atom  26 (R=0.078)  charge=  4.0435  magn= -0.0000
     atom  27 (R=0.078)  charge=  4.0435  magn= -0.0000
     atom  28 (R=0.078)  charge= 10.1060  magn= -0.0000
     atom  29 (R=0.078)  charge=  4.0435  magn= -0.0000
     atom  30 (R=0.078)  charge=  4.0435  magn= -0.0000
     atom  31 (R=0.078)  charge= 10.1060  magn=  0.0000
     atom  32 (R=0.078)  charge=  4.0435  magn= -0.0000
     atom  33 (R=0.078)  charge=  4.0435  magn= -0.0000
     atom  34 (R=0.078)  charge= 10.1060  magn= -0.0000
     atom  35 (R=0.078)  charge=  4.0435  magn= -0.0000
     atom  36 (R=0.078)  charge=  4.0435  magn= -0.0000
     atom  37 (R=0.078)  charge= 10.1059  magn= -0.0001
     atom  38 (R=0.078)  charge=  4.0435  magn= -0.0000
     atom  39 (R=0.078)  charge=  4.0435  magn= -0.0000
     atom  40 (R=0.078)  charge= 10.1060  magn= -0.0000
     atom  41 (R=0.078)  charge=  4.0435  magn= -0.0000
     atom  42 (R=0.078)  charge=  4.0435  magn= -0.0000
     atom  43 (R=0.078)  charge= 10.1060  magn= -0.0000
     atom  44 (R=0.078)  charge=  4.0435  magn= -0.0000
     atom  45 (R=0.078)  charge=  4.0435  magn= -0.0000
     atom  46 (R=0.078)  charge= 10.1060  magn= -0.0000
     atom  47 (R=0.078)  charge=  4.0435  magn= -0.0000
     atom  48 (R=0.078)  charge=  4.0435  magn= -0.0000

     total cpu time spent up to now is      572.3 secs

     End of self-consistent calculation

 ------ SPIN UP ------------


          k = 0.0000 0.0000 0.0000 (287679 PWs)   bands (ev):

   -56.5314 -56.5200 -56.5200 -56.5200 -56.5200 -56.5200 -56.5200 -56.5085
   -56.5085 -56.5085 -56.5085 -56.5085 -56.5085 -56.5085 -56.5085 -56.5085
   -32.7688 -32.7688 -32.7688 -32.7204 -32.7204 -32.7204 -32.7204 -32.7204
   -32.7204 -32.6379 -32.6379 -32.6379 -32.6379 -32.6379 -32.6379 -32.6273
   -32.6141 -32.6141 -32.6141 -32.6141 -32.6141 -32.6141 -32.5978 -32.5978
   -32.5978 -32.5978 -32.5978 -32.5978 -32.5683 -32.5683 -32.5682 -32.5682
   -32.5682 -32.5682 -32.5682 -32.5682 -32.5682 -32.5642 -32.5642 -32.5642
   -32.5340 -32.5340 -32.5340 -32.5340 -32.5340 -32.5340 -32.5036 -32.5036
   -15.1615 -14.5210 -14.5210 -14.5210 -14.5210 -14.5210 -14.5210 -14.1764
   -13.8859 -13.8859 -13.8859 -13.8858 -13.8858 -13.8858 -13.7549 -13.7549
   -13.7549 -13.7549 -13.7549 -13.7549 -13.7361 -13.7361 -13.7361 -13.5398
   -13.5398 -13.5398 -13.5324 -13.5324 -13.5324 -13.5324 -13.5324 -13.5324
    -6.5704  -6.5704  -6.5704  -6.4369  -5.8968  -5.8968  -5.8968  -5.8968
    -5.8968  -5.8968  -5.7421  -5.7421  -5.7421  -5.7421  -5.7421  -5.7421
    -5.6521  -5.6521  -5.6521  -5.5838  -5.5838  -5.5838  -5.5838  -5.5838
    -5.5838  -4.9342  -4.9342  -4.9342  -4.8958  -4.8958  -4.8958  -4.8957
    -4.8957  -4.8957  -4.7670  -4.7670  -4.7670  -4.7670  -4.7670  -4.7670
    -4.3959  -4.3959  -4.3959  -4.3958  -4.3958  -4.3958  -4.1686  -4.1686
    -4.1686  -4.1686  -4.1686  -4.1686  -3.9457  -3.9457  -3.9457  -3.9457
    -3.9457  -3.9457  -3.9142  -3.9142  -3.9142  -3.3492  -3.3492  -3.2796
    -3.2796  -3.2796  -3.2796  -3.2796  -3.2796  -2.9853  -2.9853  -2.9853
    -2.9557  -2.8301  -2.8301  -2.8301  -2.8301  -2.8301  -2.8301  -2.7486
    -2.7486  -2.7486  -2.7486  -2.7486  -2.7486  -2.6001  -2.6001  -2.6001
    -2.6001  -2.6001  -2.6001  -2.3615  -2.3615  -2.2181  -2.2181  -2.2181
    -1.7406  -1.7406  -1.7406  -1.6394  -1.6394  -1.6394  -1.6393  -1.6393
    -1.6393  -1.4267  -1.4267  -1.4267  -1.4267  -1.4267  -1.4267  -0.9640
     0.9251   0.9251   0.9251   0.9251   0.9251   0.9252   0.9464   0.9464
     0.9464   0.9464   0.9464   0.9464   1.0840   1.0840   1.0840   1.1053
     1.1053   1.1053   1.1053   1.1053   1.1053   1.4747   1.4747   1.4747
     1.4792   1.4792   1.5179   1.5180   1.5180   1.5180   1.5180   1.5181

          k = 0.0000 0.1925 0.0000 (287730 PWs)   bands (ev):

   -56.5310 -56.5229 -56.5213 -56.5213 -56.5183 -56.5183 -56.5170 -56.5102
   -56.5102 -56.5089 -56.5085 -56.5085 -56.5085 -56.5085 -56.5072 -56.5072
   -32.7663 -32.7663 -32.7644 -32.7249 -32.7249 -32.7234 -32.7234 -32.7140
   -32.7140 -32.6721 -32.6559 -32.6559 -32.6294 -32.6294 -32.6263 -32.6219
   -32.6219 -32.6095 -32.6095 -32.6055 -32.6035 -32.6011 -32.6011 -32.5968
   -32.5968 -32.5935 -32.5935 -32.5902 -32.5726 -32.5726 -32.5692 -32.5682
   -32.5682 -32.5682 -32.5682 -32.5668 -32.5668 -32.5649 -32.5649 -32.5632
   -32.5419 -32.5399 -32.5399 -32.5317 -32.5317 -32.5262 -32.5082 -32.5046
   -15.1412 -14.6972 -14.5987 -14.5987 -14.4175 -14.4175 -14.3355 -14.1672
   -13.9655 -13.9208 -13.9208 -13.8769 -13.8769 -13.8391 -13.8391 -13.8026
   -13.7665 -13.7536 -13.7536 -13.7374 -13.7374 -13.6585 -13.6585 -13.5898
   -13.5898 -13.5528 -13.5393 -13.5393 -13.5329 -13.5329 -13.4868 -13.4868
    -6.5362  -6.5362  -6.5244  -6.4099  -5.9597  -5.9597  -5.8821  -5.8821
    -5.8788  -5.8788  -5.8748  -5.7834  -5.7834  -5.7572  -5.7561  -5.7561
    -5.7108  -5.7108  -5.6484  -5.6484  -5.6092  -5.5895  -5.5895  -5.3658
    -5.3658  -5.0534  -5.0040  -5.0040  -4.9366  -4.9282  -4.9282  -4.8365
    -4.8365  -4.7947  -4.7947  -4.7666  -4.7666  -4.7468  -4.7468  -4.7200
    -4.5893  -4.5569  -4.5569  -4.2294  -4.2294  -4.1963  -4.1963  -4.1767
    -4.1767  -4.1494  -4.1494  -4.1251  -4.1251  -4.0710  -3.9287  -3.9287
    -3.8952  -3.8169  -3.8169  -3.6276  -3.6276  -3.4721  -3.4721  -3.4614
    -3.4185  -3.3288  -3.2916  -3.2916  -3.0808  -3.0373  -2.9787  -2.9787
    -2.9764  -2.9714  -2.9714  -2.9027  -2.8437  -2.8437  -2.8425  -2.8425
    -2.7252  -2.7118  -2.7118  -2.6921  -2.6921  -2.5985  -2.5961  -2.5961
    -2.4635  -2.4583  -2.4583  -2.4020  -2.3800  -2.3800  -2.3246  -2.2332
    -1.8031  -1.7703  -1.7186  -1.7186  -1.6641  -1.6641  -1.5481  -1.5481
    -1.5448  -1.5448  -1.4389  -1.4320  -1.4320  -1.2838  -1.2838  -0.9762
     0.8457   0.8457   0.8802   0.8802   0.8939   0.8939   0.9141   0.9392
     0.9392   0.9610   0.9610   0.9962   1.0403   1.0727   1.0849   1.0849
     1.1150   1.1150   1.1604   1.1604   1.2035   1.2975   1.3375   1.3375
     1.3823   1.3823   1.4246   1.4386   1.4710   1.4710   1.5121   1.5121

          k = 0.0000 0.3849 0.0000 (287830 PWs)   bands (ev):

   -56.5299 -56.5257 -56.5221 -56.5221 -56.5163 -56.5163 -56.5143 -56.5122
   -56.5122 -56.5101 -56.5085 -56.5085 -56.5085 -56.5085 -56.5064 -56.5064
   -32.7592 -32.7592 -32.7515 -32.7359 -32.7359 -32.7241 -32.7241 -32.7038
   -32.7038 -32.7038 -32.6738 -32.6738 -32.6401 -32.6401 -32.6233 -32.6126
   -32.6104 -32.6104 -32.6032 -32.6032 -32.5983 -32.5983 -32.5885 -32.5885
   -32.5830 -32.5792 -32.5792 -32.5776 -32.5776 -32.5742 -32.5742 -32.5722
   -32.5712 -32.5682 -32.5682 -32.5682 -32.5682 -32.5628 -32.5628 -32.5602
   -32.5497 -32.5497 -32.5492 -32.5318 -32.5318 -32.5218 -32.5188 -32.5077
   -15.0814 -14.8543 -14.6468 -14.6468 -14.2937 -14.2937 -14.1529 -14.1400
   -14.0367 -14.0142 -14.0142 -13.9423 -13.9423 -13.8537 -13.7827 -13.7827
   -13.7502 -13.7502 -13.7409 -13.7409 -13.7213 -13.6539 -13.6539 -13.5967
   -13.5967 -13.5903 -13.5380 -13.5380 -13.5343 -13.5343 -13.4573 -13.4573
    -6.4377  -6.4377  -6.3921  -6.3308  -6.1120  -6.1120  -6.0460  -5.9517
    -5.8656  -5.8656  -5.8444  -5.8444  -5.8349  -5.8349  -5.8143  -5.8143
    -5.7184  -5.7184  -5.6378  -5.6378  -5.6039  -5.6039  -5.4833  -5.1291
    -5.1291  -5.0463  -5.0463  -5.0380  -5.0227  -4.9491  -4.9276  -4.9276
    -4.9107  -4.9107  -4.8425  -4.8425  -4.7863  -4.7863  -4.7206  -4.7206
    -4.6626  -4.6626  -4.3292  -4.3292  -4.2387  -4.1216  -4.1216  -4.0985
    -4.0985  -4.0758  -4.0758  -4.0721  -4.0721  -3.9705  -3.9705  -3.8385
    -3.7618  -3.7444  -3.7444  -3.6185  -3.6130  -3.5054  -3.5054  -3.4158
    -3.4158  -3.2974  -3.2974  -3.2688  -3.2304  -3.0819  -3.0819  -3.0480
    -2.9574  -2.9574  -2.9488  -2.9298  -2.9298  -2.8788  -2.8788  -2.8761
    -2.8260  -2.7940  -2.7940  -2.7189  -2.7189  -2.5864  -2.5864  -2.5456
    -2.5456  -2.5152  -2.4646  -2.3425  -2.2824  -2.2824  -2.2790  -2.2720
    -1.8923  -1.8387  -1.7408  -1.7408  -1.6396  -1.6396  -1.5591  -1.5591
    -1.4739  -1.4739  -1.4505  -1.4505  -1.2490  -1.1560  -1.1560  -1.0187
     0.7228   0.7229   0.8176   0.8176   0.8367   0.8367   0.8494   0.8494
     0.9852   0.9993   0.9993   1.0132   1.0456   1.0764   1.0764   1.1036
     1.1892   1.1892   1.1979   1.1979   1.1992   1.1992   1.2040   1.3052
     1.3232   1.3235   1.3235   1.3461   1.3599   1.4684   1.4686   1.4964

          k = 0.0000-0.5774 0.0000 (287882 PWs)   bands (ev):

   -56.5281 -56.5281 -56.5223 -56.5223 -56.5143 -56.5143 -56.5143 -56.5143
   -56.5119 -56.5119 -56.5085 -56.5085 -56.5085 -56.5085 -56.5061 -56.5061
   -32.7484 -32.7484 -32.7484 -32.7484 -32.7308 -32.7308 -32.7240 -32.7240
   -32.6902 -32.6902 -32.6902 -32.6902 -32.6441 -32.6441 -32.6187 -32.6187
   -32.6061 -32.6061 -32.6039 -32.6039 -32.5854 -32.5854 -32.5854 -32.5854
   -32.5830 -32.5830 -32.5830 -32.5830 -32.5769 -32.5769 -32.5682 -32.5682
   -32.5682 -32.5682 -32.5631 -32.5631 -32.5631 -32.5631 -32.5621 -32.5621
   -32.5554 -32.5554 -32.5433 -32.5433 -32.5321 -32.5321 -32.5126 -32.5125
   -14.9843 -14.9843 -14.6631 -14.6631 -14.1564 -14.1564 -14.1564 -14.1564
   -14.0958 -14.0958 -13.9873 -13.9873 -13.9496 -13.9496 -13.7456 -13.7456
   -13.7456 -13.7456 -13.7197 -13.7197 -13.7197 -13.7197 -13.6484 -13.6484
   -13.5753 -13.5753 -13.5361 -13.5361 -13.5361 -13.5361 -13.4471 -13.4471
    -6.2874  -6.2874  -6.2874  -6.2874  -6.2056  -6.2055  -6.1901  -6.1901
    -5.9031  -5.9031  -5.8261  -5.8261  -5.8255  -5.8255  -5.7701  -5.7701
    -5.7701  -5.7701  -5.6219  -5.6218  -5.6218  -5.6218  -5.2832  -5.2832
    -5.0103  -5.0103  -5.0103  -5.0103  -4.9832  -4.9832  -4.9075  -4.9075
    -4.9075  -4.9075  -4.8821  -4.8821  -4.8821  -4.8821  -4.8192  -4.8192
    -4.6224  -4.6224  -4.3626  -4.3626  -4.0536  -4.0536  -4.0322  -4.0322
    -4.0322  -4.0322  -3.9924  -3.9924  -3.9779  -3.9779  -3.9779  -3.9779
    -3.8996  -3.8996  -3.7455  -3.7455  -3.4918  -3.4918  -3.4787  -3.4787
    -3.1730  -3.1730  -3.1249  -3.1249  -3.1157  -3.1157  -3.1157  -3.1157
    -3.0032  -3.0032  -3.0032  -3.0032  -2.9651  -2.9651  -2.9215  -2.9215
    -2.9215  -2.9215  -2.8999  -2.8998  -2.6810  -2.6809  -2.5350  -2.5350
    -2.5350  -2.5350  -2.3565  -2.3564  -2.2720  -2.2720  -2.2086  -2.2086
    -1.8961  -1.8961  -1.7059  -1.7059  -1.7059  -1.7059  -1.4893  -1.4893
    -1.4893  -1.4893  -1.4481  -1.4481  -1.1058  -1.1058  -1.1022  -1.1022
     0.6675   0.6675   0.7934   0.7934   0.7934   0.7934   0.8203   0.8203
     1.0194   1.0195   1.0449   1.0449   1.0449   1.0449   1.1378   1.1378
     1.1433   1.1433   1.2106   1.2106   1.2110   1.2110   1.2266   1.2266
     1.2654   1.2654   1.2654   1.2654   1.4478   1.4479   1.4780   1.4781

          k = 0.1667 0.2887 0.0000 (287748 PWs)   bands (ev):

   -56.5303 -56.5241 -56.5241 -56.5192 -56.5192 -56.5154 -56.5154 -56.5123
   -56.5101 -56.5101 -56.5093 -56.5093 -56.5081 -56.5073 -56.5073 -56.5063
   -32.7633 -32.7577 -32.7577 -32.7322 -32.7322 -32.7221 -32.7220 -32.7184
   -32.6996 -32.6885 -32.6885 -32.6473 -32.6422 -32.6422 -32.6243 -32.6189
   -32.6189 -32.6085 -32.6085 -32.5958 -32.5958 -32.5900 -32.5899 -32.5889
   -32.5889 -32.5861 -32.5861 -32.5821 -32.5779 -32.5754 -32.5723 -32.5723
   -32.5702 -32.5702 -32.5672 -32.5652 -32.5652 -32.5647 -32.5647 -32.5626
   -32.5478 -32.5478 -32.5407 -32.5407 -32.5238 -32.5238 -32.5173 -32.5068
   -15.1012 -14.7655 -14.7655 -14.4746 -14.4746 -14.2330 -14.2330 -14.1490
   -14.0220 -13.9964 -13.9964 -13.8675 -13.8675 -13.8643 -13.8643 -13.7967
   -13.7967 -13.7565 -13.7564 -13.7115 -13.6637 -13.6637 -13.6568 -13.5901
   -13.5873 -13.5873 -13.5648 -13.5648 -13.5252 -13.4914 -13.4914 -13.4531
    -6.4800  -6.4474  -6.4474  -6.3569  -6.0094  -6.0094  -5.9879  -5.9879
    -5.9432  -5.9432  -5.8782  -5.8296  -5.8296  -5.7829  -5.7548  -5.7478
    -5.7478  -5.6908  -5.6908  -5.6817  -5.5627  -5.5627  -5.3988  -5.3987
    -5.0965  -5.0538  -5.0538  -4.9338  -4.9338  -4.9299  -4.9299  -4.9206
    -4.9096  -4.8758  -4.8758  -4.8645  -4.8645  -4.8002  -4.8002  -4.7569
    -4.4927  -4.4380  -4.4380  -4.3886  -4.3886  -4.1646  -4.1206  -4.1206
    -4.1068  -4.1068  -4.0750  -3.9778  -3.9299  -3.9299  -3.9153  -3.9153
    -3.8975  -3.8975  -3.6228  -3.6228  -3.6073  -3.6073  -3.5497  -3.4258
    -3.4258  -3.3868  -3.2892  -3.1701  -3.0932  -3.0847  -3.0847  -2.9793
    -2.9793  -2.9772  -2.9740  -2.9740  -2.9544  -2.9544  -2.8453  -2.8453
    -2.7406  -2.7406  -2.7232  -2.7232  -2.7113  -2.6021  -2.6021  -2.5488
    -2.4898  -2.4060  -2.4060  -2.4039  -2.4039  -2.3328  -2.3328  -2.2731
    -1.8261  -1.8261  -1.7191  -1.7191  -1.6359  -1.6359  -1.6316  -1.5579
    -1.5579  -1.5275  -1.3511  -1.3511  -1.3074  -1.3074  -1.1314  -1.0036
     0.6847   0.8014   0.8014   0.8300   0.8908   0.8908   0.9206   0.9206
     0.9313   0.9313   0.9654   0.9654   1.0635   1.0635   1.0824   1.1310
     1.1310   1.1729   1.1729   1.2069   1.2069   1.2514   1.2514   1.3294
     1.3348   1.3486   1.3763   1.3763   1.4028   1.4029   1.4212   1.5101

          k = 0.1667 0.4811 0.0000 (287831 PWs)   bands (ev):

   -56.5288 -56.5267 -56.5247 -56.5197 -56.5169 -56.5145 -56.5137 -56.5129
   -56.5119 -56.5108 -56.5099 -56.5096 -56.5078 -56.5075 -56.5067 -56.5058
   -32.7556 -32.7472 -32.7445 -32.7411 -32.7359 -32.7344 -32.7175 -32.7146
   -32.7131 -32.7031 -32.6823 -32.6628 -32.6593 -32.6341 -32.6239 -32.6205
   -32.6151 -32.6101 -32.6036 -32.5971 -32.5899 -32.5882 -32.5838 -32.5816
   -32.5805 -32.5800 -32.5795 -32.5769 -32.5740 -32.5724 -32.5718 -32.5711
   -32.5708 -32.5670 -32.5664 -32.5657 -32.5636 -32.5613 -32.5607 -32.5591
   -32.5581 -32.5549 -32.5528 -32.5422 -32.5347 -32.5234 -32.5167 -32.5109
   -15.0227 -14.9091 -14.8004 -14.5039 -14.3314 -14.1773 -14.1158 -14.1133
   -14.0616 -14.0582 -14.0122 -13.9912 -13.9078 -13.8772 -13.8497 -13.8253
   -13.7989 -13.7282 -13.7031 -13.6902 -13.6789 -13.6742 -13.6455 -13.6162
   -13.6130 -13.5823 -13.5748 -13.5543 -13.5117 -13.5000 -13.4694 -13.4354
    -6.3602  -6.3158  -6.2806  -6.2544  -6.1919  -6.1504  -6.1112  -6.0585
    -6.0326  -5.9792  -5.9668  -5.9425  -5.9077  -5.8297  -5.7320  -5.7096
    -5.6857  -5.6851  -5.6435  -5.6352  -5.5090  -5.4514  -5.3970  -5.2081
    -5.1627  -5.0342  -5.0242  -5.0105  -5.0063  -5.0019  -4.9551  -4.9415
    -4.9201  -4.8962  -4.8822  -4.8777  -4.8752  -4.8466  -4.8207  -4.8158
    -4.5877  -4.5735  -4.3487  -4.2493  -4.0970  -4.0837  -4.0745  -4.0731
    -4.0338  -4.0325  -4.0284  -4.0182  -3.9765  -3.9475  -3.8968  -3.8404
    -3.8356  -3.7990  -3.7879  -3.7467  -3.7439  -3.6294  -3.5425  -3.3781
    -3.2134  -3.1713  -3.1673  -3.1420  -3.1178  -3.1071  -3.1020  -3.0641
    -3.0516  -3.0316  -2.9771  -2.9765  -2.9470  -2.9310  -2.9045  -2.8993
    -2.8642  -2.8274  -2.8192  -2.7724  -2.7377  -2.6850  -2.6847  -2.6551
    -2.5183  -2.4539  -2.4408  -2.3901  -2.2736  -2.2497  -2.2318  -2.2064
    -1.8456  -1.7955  -1.7638  -1.6818  -1.6773  -1.6662  -1.6359  -1.5882
    -1.5836  -1.4249  -1.3538  -1.3025  -1.2218  -1.1839  -1.0684  -1.0251
     0.5655   0.7366   0.7436   0.7490   0.8213   0.8810   0.9023   0.9234
     0.9648   0.9760   1.0072   1.0238   1.0357   1.0392   1.0448   1.1254
     1.1667   1.1997   1.2016   1.2176   1.2224   1.2252   1.2257   1.2322
     1.2728   1.2835   1.3013   1.3079   1.3671   1.3702   1.3763   1.4838

          k = 0.3333 0.5774 0.0000 (287970 PWs)   bands (ev):

   -56.5270 -56.5270 -56.5270 -56.5171 -56.5171 -56.5171 -56.5114 -56.5114
   -56.5114 -56.5114 -56.5114 -56.5114 -56.5072 -56.5072 -56.5072 -56.5057
   -32.7474 -32.7474 -32.7474 -32.7281 -32.7281 -32.7281 -32.7281 -32.7281
   -32.7281 -32.7062 -32.6690 -32.6586 -32.6586 -32.6586 -32.6160 -32.6160
   -32.6160 -32.6054 -32.6054 -32.6054 -32.5904 -32.5904 -32.5904 -32.5756
   -32.5756 -32.5756 -32.5756 -32.5756 -32.5756 -32.5653 -32.5653 -32.5653
   -32.5653 -32.5653 -32.5653 -32.5648 -32.5648 -32.5648 -32.5608 -32.5547
   -32.5547 -32.5547 -32.5543 -32.5543 -32.5543 -32.5162 -32.5162 -32.5162
   -14.9277 -14.9277 -14.9277 -14.3442 -14.3442 -14.3442 -14.0701 -14.0701
   -14.0701 -13.9549 -13.9549 -13.9549 -13.9548 -13.9548 -13.9548 -13.8043
   -13.8043 -13.8043 -13.6478 -13.6478 -13.6478 -13.6317 -13.6317 -13.6317
   -13.6316 -13.6316 -13.6316 -13.5398 -13.4882 -13.4882 -13.4881 -13.4278
    -6.2195  -6.2195  -6.2195  -6.1334  -6.1334  -6.1334  -6.1295  -6.1295
    -6.1295  -6.1295  -6.1295  -6.1295  -5.9692  -5.7755  -5.7755  -5.7755
    -5.6179  -5.6179  -5.6179  -5.4941  -5.3034  -5.3034  -5.3034  -5.3034
    -5.3034  -5.3034  -5.0208  -5.0116  -5.0116  -5.0116  -4.9521  -4.9521
    -4.9521  -4.9521  -4.9521  -4.9521  -4.8516  -4.8516  -4.8516  -4.6340
    -4.4998  -4.4998  -4.4998  -4.0618  -4.0618  -4.0618  -4.0446  -4.0446
    -4.0446  -4.0140  -3.9758  -3.9758  -3.9758  -3.9058  -3.9058  -3.9058
    -3.9058  -3.9058  -3.9058  -3.5711  -3.5711  -3.5711  -3.5526  -3.5526
    -3.5526  -3.2072  -3.1311  -3.1311  -3.1311  -3.0123  -3.0123  -3.0123
    -3.0053  -3.0053  -3.0053  -2.8944  -2.8944  -2.8944  -2.8063  -2.8063
    -2.8063  -2.8063  -2.8063  -2.8063  -2.7578  -2.7578  -2.7578  -2.7578
    -2.7578  -2.7577  -2.3292  -2.3292  -2.3292  -2.1928  -2.1928  -2.1928
    -1.7178  -1.7178  -1.7178  -1.7178  -1.7177  -1.7177  -1.6613  -1.6613
    -1.6613  -1.3139  -1.3139  -1.3138  -1.1618  -1.1618  -1.1618  -0.9699
     0.4987   0.7074   0.7074   0.7074   0.9419   0.9419   0.9419   0.9710
     0.9710   0.9710   0.9710   0.9710   0.9710   1.0574   1.0574   1.0574
     1.1419   1.1419   1.1419   1.2369   1.2369   1.2369   1.2926   1.2926
     1.2926   1.2927   1.2927   1.2927   1.3146   1.3147   1.3782   1.3782

 ------ SPIN DOWN ----------


          k = 0.0000 0.0000 0.0000 (287679 PWs)   bands (ev):

   -56.5314 -56.5200 -56.5200 -56.5200 -56.5200 -56.5200 -56.5200 -56.5086
   -56.5086 -56.5085 -56.5085 -56.5085 -56.5085 -56.5085 -56.5085 -56.5085
   -32.7688 -32.7688 -32.7688 -32.7204 -32.7204 -32.7204 -32.7204 -32.7204
   -32.7204 -32.6380 -32.6380 -32.6380 -32.6379 -32.6379 -32.6379 -32.6273
   -32.6142 -32.6142 -32.6142 -32.6142 -32.6141 -32.6141 -32.5979 -32.5979
   -32.5979 -32.5978 -32.5978 -32.5978 -32.5683 -32.5683 -32.5683 -32.5683
   -32.5682 -32.5682 -32.5682 -32.5682 -32.5682 -32.5643 -32.5643 -32.5643
   -32.5341 -32.5341 -32.5341 -32.5341 -32.5341 -32.5340 -32.5036 -32.5036
   -15.1615 -14.5210 -14.5210 -14.5210 -14.5210 -14.5210 -14.5210 -14.1764
   -13.8859 -13.8859 -13.8859 -13.8858 -13.8858 -13.8858 -13.7549 -13.7549
   -13.7549 -13.7549 -13.7549 -13.7549 -13.7361 -13.7361 -13.7361 -13.5398
   -13.5398 -13.5398 -13.5324 -13.5324 -13.5324 -13.5324 -13.5324 -13.5324
    -6.5704  -6.5704  -6.5704  -6.4369  -5.8969  -5.8969  -5.8969  -5.8969
    -5.8968  -5.8968  -5.7421  -5.7421  -5.7421  -5.7421  -5.7421  -5.7421
    -5.6521  -5.6521  -5.6521  -5.5838  -5.5838  -5.5838  -5.5838  -5.5838
    -5.5838  -4.9342  -4.9342  -4.9342  -4.8958  -4.8958  -4.8958  -4.8958
    -4.8958  -4.8958  -4.7670  -4.7670  -4.7670  -4.7670  -4.7670  -4.7670
    -4.3959  -4.3959  -4.3959  -4.3959  -4.3959  -4.3958  -4.1686  -4.1686
    -4.1686  -4.1686  -4.1686  -4.1686  -3.9457  -3.9457  -3.9457  -3.9457
    -3.9457  -3.9457  -3.9142  -3.9142  -3.9142  -3.3492  -3.3492  -3.2796
    -3.2796  -3.2796  -3.2796  -3.2796  -3.2796  -2.9853  -2.9853  -2.9853
    -2.9557  -2.8301  -2.8301  -2.8301  -2.8301  -2.8301  -2.8301  -2.7486
    -2.7486  -2.7486  -2.7486  -2.7486  -2.7486  -2.6001  -2.6001  -2.6001
    -2.6001  -2.6001  -2.6001  -2.3615  -2.3615  -2.2181  -2.2181  -2.2181
    -1.7406  -1.7406  -1.7406  -1.6394  -1.6394  -1.6394  -1.6394  -1.6394
    -1.6394  -1.4267  -1.4267  -1.4267  -1.4267  -1.4267  -1.4267  -0.9640
     0.9251   0.9251   0.9251   0.9251   0.9251   0.9251   0.9463   0.9463
     0.9464   0.9464   0.9464   0.9464   1.0840   1.0840   1.0840   1.1053
     1.1053   1.1053   1.1053   1.1053   1.1053   1.4747   1.4747   1.4747
     1.4792   1.4792   1.5179   1.5179   1.5180   1.5180   1.5180   1.5180

          k = 0.0000 0.1925 0.0000 (287730 PWs)   bands (ev):

   -56.5310 -56.5230 -56.5213 -56.5213 -56.5183 -56.5183 -56.5170 -56.5102
   -56.5102 -56.5089 -56.5086 -56.5085 -56.5085 -56.5085 -56.5072 -56.5072
   -32.7663 -32.7663 -32.7644 -32.7250 -32.7250 -32.7234 -32.7234 -32.7140
   -32.7140 -32.6722 -32.6559 -32.6559 -32.6294 -32.6294 -32.6263 -32.6220
   -32.6220 -32.6095 -32.6095 -32.6055 -32.6035 -32.6012 -32.6012 -32.5968
   -32.5968 -32.5935 -32.5935 -32.5902 -32.5726 -32.5726 -32.5692 -32.5683
   -32.5683 -32.5682 -32.5682 -32.5668 -32.5668 -32.5649 -32.5649 -32.5632
   -32.5419 -32.5399 -32.5399 -32.5318 -32.5318 -32.5262 -32.5083 -32.5047
   -15.1412 -14.6972 -14.5987 -14.5987 -14.4175 -14.4175 -14.3355 -14.1672
   -13.9655 -13.9208 -13.9208 -13.8769 -13.8769 -13.8391 -13.8391 -13.8026
   -13.7665 -13.7536 -13.7536 -13.7374 -13.7374 -13.6585 -13.6585 -13.5898
   -13.5898 -13.5528 -13.5393 -13.5393 -13.5329 -13.5329 -13.4868 -13.4868
    -6.5363  -6.5362  -6.5244  -6.4100  -5.9597  -5.9597  -5.8821  -5.8821
    -5.8788  -5.8788  -5.8748  -5.7834  -5.7834  -5.7572  -5.7561  -5.7561
    -5.7108  -5.7108  -5.6484  -5.6484  -5.6092  -5.5895  -5.5895  -5.3658
    -5.3658  -5.0534  -5.0040  -5.0040  -4.9366  -4.9282  -4.9282  -4.8365
    -4.8365  -4.7947  -4.7947  -4.7666  -4.7666  -4.7468  -4.7468  -4.7200
    -4.5893  -4.5569  -4.5569  -4.2294  -4.2294  -4.1963  -4.1963  -4.1767
    -4.1767  -4.1494  -4.1494  -4.1251  -4.1251  -4.0710  -3.9287  -3.9287
    -3.8952  -3.8170  -3.8170  -3.6276  -3.6276  -3.4721  -3.4721  -3.4614
    -3.4185  -3.3288  -3.2916  -3.2916  -3.0808  -3.0373  -2.9787  -2.9787
    -2.9764  -2.9714  -2.9714  -2.9027  -2.8437  -2.8437  -2.8425  -2.8425
    -2.7252  -2.7118  -2.7118  -2.6921  -2.6921  -2.5985  -2.5961  -2.5961
    -2.4635  -2.4583  -2.4583  -2.4020  -2.3800  -2.3800  -2.3246  -2.2332
    -1.8031  -1.7703  -1.7186  -1.7186  -1.6641  -1.6641  -1.5482  -1.5482
    -1.5448  -1.5448  -1.4389  -1.4321  -1.4321  -1.2839  -1.2839  -0.9763
     0.8457   0.8457   0.8802   0.8802   0.8939   0.8939   0.9141   0.9391
     0.9391   0.9610   0.9610   0.9962   1.0403   1.0727   1.0849   1.0849
     1.1150   1.1150   1.1604   1.1604   1.2035   1.2975   1.3375   1.3375
     1.3823   1.3823   1.4245   1.4386   1.4710   1.4710   1.5120   1.5121

          k = 0.0000 0.3849 0.0000 (287830 PWs)   bands (ev):

   -56.5299 -56.5257 -56.5221 -56.5221 -56.5164 -56.5164 -56.5143 -56.5122
   -56.5122 -56.5101 -56.5086 -56.5085 -56.5085 -56.5085 -56.5064 -56.5064
   -32.7592 -32.7592 -32.7515 -32.7359 -32.7359 -32.7241 -32.7241 -32.7039
   -32.7039 -32.7038 -32.6739 -32.6739 -32.6401 -32.6401 -32.6234 -32.6126
   -32.6104 -32.6104 -32.6032 -32.6032 -32.5983 -32.5983 -32.5885 -32.5885
   -32.5830 -32.5792 -32.5792 -32.5776 -32.5776 -32.5743 -32.5743 -32.5722
   -32.5712 -32.5683 -32.5682 -32.5682 -32.5682 -32.5628 -32.5628 -32.5602
   -32.5498 -32.5498 -32.5492 -32.5318 -32.5318 -32.5218 -32.5189 -32.5077
   -15.0814 -14.8543 -14.6468 -14.6468 -14.2937 -14.2937 -14.1529 -14.1400
   -14.0367 -14.0142 -14.0142 -13.9423 -13.9423 -13.8537 -13.7827 -13.7827
   -13.7502 -13.7502 -13.7409 -13.7409 -13.7213 -13.6539 -13.6539 -13.5967
   -13.5967 -13.5903 -13.5380 -13.5380 -13.5343 -13.5343 -13.4573 -13.4573
    -6.4377  -6.4377  -6.3921  -6.3308  -6.1120  -6.1120  -6.0460  -5.9517
    -5.8656  -5.8656  -5.8444  -5.8444  -5.8349  -5.8349  -5.8143  -5.8143
    -5.7184  -5.7184  -5.6378  -5.6378  -5.6040  -5.6040  -5.4833  -5.1291
    -5.1291  -5.0463  -5.0463  -5.0380  -5.0227  -4.9491  -4.9277  -4.9277
    -4.9107  -4.9107  -4.8425  -4.8425  -4.7863  -4.7863  -4.7206  -4.7206
    -4.6626  -4.6626  -4.3292  -4.3292  -4.2387  -4.1216  -4.1216  -4.0985
    -4.0985  -4.0758  -4.0758  -4.0721  -4.0721  -3.9705  -3.9705  -3.8385
    -3.7618  -3.7444  -3.7444  -3.6185  -3.6130  -3.5054  -3.5054  -3.4158
    -3.4158  -3.2974  -3.2974  -3.2688  -3.2304  -3.0819  -3.0819  -3.0480
    -2.9574  -2.9574  -2.9488  -2.9299  -2.9299  -2.8788  -2.8788  -2.8762
    -2.8260  -2.7940  -2.7940  -2.7189  -2.7189  -2.5864  -2.5864  -2.5456
    -2.5456  -2.5152  -2.4646  -2.3425  -2.2824  -2.2824  -2.2790  -2.2721
    -1.8924  -1.8387  -1.7408  -1.7408  -1.6396  -1.6396  -1.5591  -1.5591
    -1.4740  -1.4740  -1.4506  -1.4506  -1.2490  -1.1561  -1.1561  -1.0188
     0.7228   0.7228   0.8176   0.8176   0.8367   0.8367   0.8494   0.8494
     0.9851   0.9993   0.9993   1.0132   1.0456   1.0764   1.0764   1.1035
     1.1891   1.1891   1.1979   1.1979   1.1992   1.1992   1.2040   1.3052
     1.3232   1.3234   1.3234   1.3461   1.3599   1.4683   1.4684   1.4963

          k = 0.0000-0.5774 0.0000 (287882 PWs)   bands (ev):

   -56.5281 -56.5281 -56.5224 -56.5224 -56.5143 -56.5143 -56.5143 -56.5143
   -56.5119 -56.5119 -56.5086 -56.5085 -56.5085 -56.5085 -56.5062 -56.5062
   -32.7484 -32.7484 -32.7484 -32.7484 -32.7309 -32.7308 -32.7240 -32.7240
   -32.6902 -32.6902 -32.6902 -32.6902 -32.6441 -32.6441 -32.6187 -32.6187
   -32.6061 -32.6061 -32.6040 -32.6040 -32.5854 -32.5854 -32.5854 -32.5854
   -32.5831 -32.5831 -32.5831 -32.5831 -32.5769 -32.5769 -32.5683 -32.5682
   -32.5682 -32.5682 -32.5631 -32.5631 -32.5631 -32.5631 -32.5621 -32.5621
   -32.5555 -32.5554 -32.5434 -32.5433 -32.5322 -32.5322 -32.5126 -32.5125
   -14.9843 -14.9843 -14.6631 -14.6631 -14.1564 -14.1564 -14.1564 -14.1564
   -14.0958 -14.0958 -13.9873 -13.9873 -13.9496 -13.9496 -13.7456 -13.7456
   -13.7456 -13.7456 -13.7197 -13.7197 -13.7197 -13.7197 -13.6484 -13.6484
   -13.5753 -13.5753 -13.5361 -13.5361 -13.5361 -13.5361 -13.4471 -13.4471
    -6.2874  -6.2874  -6.2874  -6.2874  -6.2056  -6.2056  -6.1901  -6.1901
    -5.9031  -5.9031  -5.8261  -5.8261  -5.8255  -5.8255  -5.7701  -5.7701
    -5.7701  -5.7701  -5.6219  -5.6219  -5.6218  -5.6218  -5.2832  -5.2832
    -5.0103  -5.0103  -5.0103  -5.0103  -4.9832  -4.9832  -4.9075  -4.9075
    -4.9075  -4.9075  -4.8822  -4.8821  -4.8821  -4.8821  -4.8192  -4.8192
    -4.6224  -4.6224  -4.3626  -4.3626  -4.0536  -4.0536  -4.0322  -4.0322
    -4.0322  -4.0322  -3.9924  -3.9924  -3.9779  -3.9779  -3.9779  -3.9779
    -3.8996  -3.8996  -3.7455  -3.7455  -3.4918  -3.4918  -3.4787  -3.4787
    -3.1731  -3.1730  -3.1249  -3.1249  -3.1157  -3.1157  -3.1157  -3.1157
    -3.0032  -3.0032  -3.0032  -3.0032  -2.9651  -2.9651  -2.9215  -2.9215
    -2.9215  -2.9215  -2.8999  -2.8998  -2.6810  -2.6810  -2.5350  -2.5350
    -2.5350  -2.5350  -2.3565  -2.3564  -2.2720  -2.2720  -2.2086  -2.2086
    -1.8961  -1.8961  -1.7059  -1.7059  -1.7059  -1.7059  -1.4893  -1.4893
    -1.4893  -1.4893  -1.4482  -1.4482  -1.1059  -1.1058  -1.1022  -1.1022
     0.6675   0.6675   0.7934   0.7934   0.7934   0.7934   0.8203   0.8203
     1.0194   1.0194   1.0449   1.0449   1.0449   1.0449   1.1378   1.1378
     1.1432   1.1433   1.2106   1.2106   1.2110   1.2110   1.2266   1.2266
     1.2654   1.2654   1.2654   1.2654   1.4478   1.4478   1.4780   1.4780

          k = 0.1667 0.2887 0.0000 (287748 PWs)   bands (ev):

   -56.5303 -56.5241 -56.5241 -56.5192 -56.5192 -56.5155 -56.5154 -56.5123
   -56.5101 -56.5101 -56.5093 -56.5093 -56.5082 -56.5074 -56.5073 -56.5063
   -32.7633 -32.7578 -32.7578 -32.7323 -32.7323 -32.7221 -32.7221 -32.7184
   -32.6996 -32.6885 -32.6885 -32.6473 -32.6422 -32.6422 -32.6243 -32.6189
   -32.6189 -32.6085 -32.6085 -32.5959 -32.5959 -32.5900 -32.5900 -32.5889
   -32.5889 -32.5861 -32.5861 -32.5821 -32.5779 -32.5754 -32.5723 -32.5723
   -32.5702 -32.5702 -32.5672 -32.5652 -32.5652 -32.5647 -32.5647 -32.5626
   -32.5478 -32.5478 -32.5408 -32.5408 -32.5238 -32.5238 -32.5173 -32.5068
   -15.1012 -14.7655 -14.7655 -14.4746 -14.4746 -14.2330 -14.2330 -14.1490
   -14.0220 -13.9964 -13.9964 -13.8675 -13.8675 -13.8643 -13.8643 -13.7967
   -13.7967 -13.7565 -13.7564 -13.7115 -13.6637 -13.6637 -13.6568 -13.5901
   -13.5873 -13.5873 -13.5648 -13.5648 -13.5252 -13.4914 -13.4914 -13.4531
    -6.4800  -6.4474  -6.4474  -6.3569  -6.0094  -6.0094  -5.9879  -5.9879
    -5.9432  -5.9432  -5.8782  -5.8296  -5.8296  -5.7829  -5.7548  -5.7478
    -5.7478  -5.6908  -5.6908  -5.6817  -5.5627  -5.5627  -5.3988  -5.3988
    -5.0965  -5.0538  -5.0538  -4.9338  -4.9338  -4.9299  -4.9299  -4.9206
    -4.9096  -4.8758  -4.8758  -4.8645  -4.8645  -4.8002  -4.8002  -4.7569
    -4.4927  -4.4380  -4.4380  -4.3886  -4.3886  -4.1646  -4.1206  -4.1206
    -4.1068  -4.1068  -4.0750  -3.9778  -3.9299  -3.9299  -3.9153  -3.9153
    -3.8975  -3.8975  -3.6228  -3.6228  -3.6073  -3.6073  -3.5497  -3.4258
    -3.4258  -3.3868  -3.2892  -3.1701  -3.0932  -3.0847  -3.0847  -2.9794
    -2.9794  -2.9772  -2.9740  -2.9740  -2.9544  -2.9544  -2.8453  -2.8453
    -2.7406  -2.7406  -2.7232  -2.7232  -2.7113  -2.6021  -2.6021  -2.5488
    -2.4898  -2.4060  -2.4060  -2.4039  -2.4039  -2.3328  -2.3328  -2.2731
    -1.8261  -1.8261  -1.7191  -1.7191  -1.6359  -1.6359  -1.6317  -1.5579
    -1.5579  -1.5276  -1.3512  -1.3511  -1.3074  -1.3074  -1.1315  -1.0036
     0.6847   0.8014   0.8014   0.8300   0.8908   0.8908   0.9206   0.9206
     0.9313   0.9313   0.9654   0.9654   1.0634   1.0634   1.0823   1.1309
     1.1310   1.1728   1.1728   1.2069   1.2069   1.2514   1.2514   1.3294
     1.3347   1.3486   1.3762   1.3762   1.4028   1.4028   1.4213   1.5089

          k = 0.1667 0.4811 0.0000 (287831 PWs)   bands (ev):

   -56.5288 -56.5267 -56.5248 -56.5197 -56.5169 -56.5146 -56.5137 -56.5129
   -56.5119 -56.5108 -56.5099 -56.5096 -56.5078 -56.5075 -56.5067 -56.5059
   -32.7556 -32.7472 -32.7445 -32.7411 -32.7359 -32.7345 -32.7176 -32.7146
   -32.7131 -32.7031 -32.6823 -32.6628 -32.6593 -32.6341 -32.6239 -32.6205
   -32.6151 -32.6101 -32.6036 -32.5971 -32.5900 -32.5882 -32.5838 -32.5816
   -32.5806 -32.5800 -32.5795 -32.5769 -32.5740 -32.5724 -32.5718 -32.5711
   -32.5708 -32.5670 -32.5664 -32.5657 -32.5636 -32.5614 -32.5607 -32.5591
   -32.5581 -32.5549 -32.5528 -32.5422 -32.5347 -32.5234 -32.5167 -32.5109
   -15.0227 -14.9092 -14.8004 -14.5039 -14.3314 -14.1773 -14.1158 -14.1133
   -14.0616 -14.0582 -14.0122 -13.9912 -13.9078 -13.8772 -13.8497 -13.8253
   -13.7989 -13.7282 -13.7031 -13.6902 -13.6789 -13.6742 -13.6455 -13.6162
   -13.6130 -13.5823 -13.5748 -13.5543 -13.5117 -13.5000 -13.4694 -13.4354
    -6.3602  -6.3158  -6.2806  -6.2545  -6.1919  -6.1505  -6.1112  -6.0585
    -6.0326  -5.9792  -5.9668  -5.9425  -5.9077  -5.8297  -5.7320  -5.7096
    -5.6857  -5.6851  -5.6436  -5.6352  -5.5090  -5.4514  -5.3971  -5.2081
    -5.1627  -5.0342  -5.0242  -5.0105  -5.0064  -5.0019  -4.9551  -4.9415
    -4.9201  -4.8962  -4.8822  -4.8777  -4.8752  -4.8466  -4.8207  -4.8158
    -4.5877  -4.5735  -4.3488  -4.2493  -4.0970  -4.0837  -4.0745  -4.0731
    -4.0338  -4.0325  -4.0284  -4.0182  -3.9765  -3.9475  -3.8968  -3.8404
    -3.8356  -3.7991  -3.7879  -3.7467  -3.7439  -3.6294  -3.5425  -3.3781
    -3.2135  -3.1713  -3.1673  -3.1420  -3.1178  -3.1072  -3.1020  -3.0641
    -3.0516  -3.0316  -2.9771  -2.9765  -2.9470  -2.9310  -2.9045  -2.8993
    -2.8642  -2.8274  -2.8192  -2.7724  -2.7377  -2.6850  -2.6847  -2.6551
    -2.5183  -2.4539  -2.4408  -2.3901  -2.2736  -2.2497  -2.2318  -2.2064
    -1.8457  -1.7955  -1.7638  -1.6819  -1.6773  -1.6662  -1.6359  -1.5883
    -1.5836  -1.4249  -1.3538  -1.3025  -1.2218  -1.1839  -1.0684  -1.0251
     0.5654   0.7365   0.7436   0.7490   0.8212   0.8810   0.9022   0.9234
     0.9648   0.9760   1.0072   1.0237   1.0357   1.0391   1.0448   1.1254
     1.1667   1.1997   1.2016   1.2176   1.2224   1.2252   1.2257   1.2322
     1.2728   1.2835   1.3013   1.3078   1.3671   1.3702   1.3763   1.4844

          k = 0.3333 0.5774 0.0000 (287970 PWs)   bands (ev):

   -56.5271 -56.5270 -56.5270 -56.5171 -56.5171 -56.5171 -56.5114 -56.5114
   -56.5114 -56.5114 -56.5114 -56.5114 -56.5072 -56.5072 -56.5072 -56.5057
   -32.7474 -32.7474 -32.7474 -32.7281 -32.7281 -32.7281 -32.7281 -32.7281
   -32.7281 -32.7062 -32.6690 -32.6586 -32.6586 -32.6586 -32.6160 -32.6160
   -32.6160 -32.6054 -32.6054 -32.6054 -32.5905 -32.5905 -32.5905 -32.5757
   -32.5757 -32.5757 -32.5756 -32.5756 -32.5756 -32.5653 -32.5653 -32.5653
   -32.5653 -32.5653 -32.5653 -32.5648 -32.5648 -32.5648 -32.5609 -32.5547
   -32.5547 -32.5547 -32.5543 -32.5543 -32.5543 -32.5163 -32.5163 -32.5162
   -14.9277 -14.9277 -14.9277 -14.3442 -14.3442 -14.3442 -14.0701 -14.0701
   -14.0701 -13.9549 -13.9549 -13.9549 -13.9549 -13.9549 -13.9548 -13.8043
   -13.8043 -13.8043 -13.6478 -13.6478 -13.6478 -13.6317 -13.6317 -13.6317
   -13.6316 -13.6316 -13.6316 -13.5398 -13.4882 -13.4882 -13.4881 -13.4278
    -6.2195  -6.2195  -6.2195  -6.1334  -6.1334  -6.1334  -6.1295  -6.1295
    -6.1295  -6.1295  -6.1295  -6.1295  -5.9692  -5.7755  -5.7755  -5.7755
    -5.6179  -5.6179  -5.6179  -5.4941  -5.3034  -5.3034  -5.3034  -5.3034
    -5.3034  -5.3034  -5.0208  -5.0116  -5.0116  -5.0116  -4.9521  -4.9521
    -4.9521  -4.9521  -4.9521  -4.9521  -4.8516  -4.8516  -4.8516  -4.6340
    -4.4998  -4.4998  -4.4998  -4.0618  -4.0618  -4.0618  -4.0446  -4.0446
    -4.0446  -4.0140  -3.9758  -3.9758  -3.9758  -3.9058  -3.9058  -3.9058
    -3.9058  -3.9058  -3.9058  -3.5711  -3.5711  -3.5711  -3.5526  -3.5526
    -3.5526  -3.2072  -3.1311  -3.1311  -3.1311  -3.0123  -3.0123  -3.0123
    -3.0053  -3.0053  -3.0053  -2.8944  -2.8944  -2.8944  -2.8063  -2.8063
    -2.8063  -2.8063  -2.8063  -2.8063  -2.7578  -2.7578  -2.7578  -2.7578
    -2.7578  -2.7578  -2.3292  -2.3292  -2.3292  -2.1928  -2.1928  -2.1928
    -1.7178  -1.7178  -1.7178  -1.7178  -1.7178  -1.7178  -1.6613  -1.6613
    -1.6613  -1.3139  -1.3139  -1.3139  -1.1619  -1.1618  -1.1618  -0.9699
     0.4987   0.7074   0.7074   0.7074   0.9419   0.9419   0.9419   0.9709
     0.9710   0.9710   0.9710   0.9710   0.9710   1.0574   1.0574   1.0574
     1.1419   1.1419   1.1419   1.2369   1.2369   1.2369   1.2926   1.2926
     1.2926   1.2926   1.2926   1.2926   1.3146   1.3776   1.3781   1.3782

     the Fermi energy is    -1.5355 ev

!    total energy              =  -11409.71148479 Ry

     total all-electron energy =   -277768.588261 Ry
     estimated scf accuracy    <       0.00000004 Ry
     smearing contrib. (-TS)   =      -0.01762360 Ry
     internal energy E=F+TS    =  -11409.69386120 Ry

     The total energy is F=E-TS. E is the sum of the following terms:
     one-electron contribution =  -17213.75843190 Ry
     hartree contribution      =    8639.70691410 Ry
     xc contribution           =    -503.17874155 Ry
     ewald contribution        =    6590.29862696 Ry
     one-center paw contrib.   =   -8922.76222882 Ry

     total magnetization       =    -0.00 Bohr mag/cell
     absolute magnetization    =     0.00 Bohr mag/cell

     convergence has been achieved in  16 iterations

     Writing output data file ./tmp/adatom.save/
 
     init_run     :     21.41s CPU     22.98s WALL (       1 calls)
     electrons    :    543.19s CPU    548.75s WALL (       1 calls)

     Called by init_run:
     wfcinit      :     12.45s CPU     12.67s WALL (       1 calls)
     potinit      :      2.10s CPU      2.81s WALL (       1 calls)
     hinit0       :      2.36s CPU      2.80s WALL (       1 calls)

     Called by electrons:
     c_bands      :    434.50s CPU    435.66s WALL (      17 calls)
     sum_band     :     66.01s CPU     67.45s WALL (      17 calls)
     v_of_rho     :      5.88s CPU      7.12s WALL (      17 calls)
     newd         :      4.83s CPU      5.85s WALL (      17 calls)
     PAW_pot      :      2.72s CPU      2.82s WALL (      17 calls)
     mix_rho      :     28.68s CPU     28.85s WALL (      17 calls)

     Called by c_bands:
     init_us_2    :      4.28s CPU      4.29s WALL (     490 calls)
     cegterg      :    420.46s CPU    421.54s WALL (     238 calls)

     Called by *egterg:
     cdiaghg      :     27.87s CPU     27.99s WALL (     914 calls)
     h_psi        :    229.87s CPU    230.57s WALL (     942 calls)
     s_psi        :     26.72s CPU     26.75s WALL (     942 calls)
     g_psi        :      1.03s CPU      1.03s WALL (     690 calls)

     Called by h_psi:
     h_psi:calbec :     28.87s CPU     29.01s WALL (     942 calls)
     vloc_psi     :    171.98s CPU    172.39s WALL (     942 calls)
     add_vuspsi   :     26.96s CPU     27.02s WALL (     942 calls)

     General routines
     calbec       :     40.28s CPU     40.44s WALL (    1180 calls)
     fft          :      7.08s CPU      9.35s WALL (     421 calls)
     ffts         :     16.69s CPU     16.76s WALL (    9159 calls)
     fftw         :    199.46s CPU    199.96s WALL (  330300 calls)
     interpolate  :      1.90s CPU      2.80s WALL (      34 calls)
 
     Parallel routines
 
     PWSCF        :   9m40.13s CPU   9m51.21s WALL

 
   This run was terminated on:  14:35:47   4Oct2023            

=------------------------------------------------------------------------------=
   JOB DONE.
=------------------------------------------------------------------------------=
