 
             +---------------------------------------------------+
             |                                                   |
             |                   WANNIER90                       |
             |                                                   |
             +---------------------------------------------------+
             |                                                   |
             |        Welcome to the Maximally-Localized         |
             |        Generalized Wannier Functions code         |
             |            http://www.wannier.org                 |
             |                                                   |
             |                                                   |
             |  Wannier90 Developer Group:                       |
             |    Giovanni Pizzi    (EPFL)                       |
             |    Valerio Vitale    (Cambridge)                  |
             |    David Vanderbilt  (Rutgers University)         |
             |    Nicola Marzari    (EPFL)                       |
             |    Ivo Souza         (Universidad del Pais Vasco) |
             |    Arash A. Mostofi  (Imperial College London)    |
             |    Jonathan R. Yates (University of Oxford)       |
             |                                                   |
             |  For the full list of Wannier90 3.x authors,      |
             |  please check the code documentation and the      |
             |  README on the GitHub page of the code            |
             |                                                   |
             |                                                   |
             |  Please cite                                      |
             |                                                   |
             |  [ref] "Wannier90 as a community code:            |
             |        new features and applications",            |
             |        G. Pizzi et al., J. Phys. Cond. Matt. 32,  |
             |        165902 (2020).                             |
             |        http://doi.org/10.1088/1361-648X/ab51ff    |
             |                                                   |
             |  in any publications arising from the use of      |
             |  this code. For the method please cite            |
             |                                                   |
             |  [ref] "Maximally Localized Generalised Wannier   |
             |         Functions for Composite Energy Bands"     |
             |         N. Marzari and D. Vanderbilt              |
             |         Phys. Rev. B 56 12847 (1997)              |
             |                                                   |
             |  [ref] "Maximally Localized Wannier Functions     |
             |         for Entangled Energy Bands"               |
             |         I. Souza, N. Marzari and D. Vanderbilt    |
             |         Phys. Rev. B 65 035109 (2001)             |
             |                                                   |
             |                                                   |
             | Copyright (c) 1996-2020                           |
             |        The Wannier90 Developer Group and          |
             |        individual contributors                    |
             |                                                   |
             |      Release: 3.1.0        5th March    2020      |
             |                                                   |
             | This program is free software; you can            |
             | redistribute it and/or modify it under the terms  |
             | of the GNU General Public License as published by |
             | the Free Software Foundation; either version 2 of |
             | the License, or (at your option) any later version|
             |                                                   |
             | This program is distributed in the hope that it   |
             | will be useful, but WITHOUT ANY WARRANTY; without |
             | even the implied warranty of MERCHANTABILITY or   |
             | FITNESS FOR A PARTICULAR PURPOSE. See the GNU     |
             | General Public License for more details.          |
             |                                                   |
             | You should have received a copy of the GNU General|
             | Public License along with this program; if not,   |
             | write to the Free Software Foundation, Inc.,      |
             | 675 Mass Ave, Cambridge, MA 02139, USA.           |
             |                                                   |
             +---------------------------------------------------+
             |    Execution started on  4Oct2023 at 15:06:00     |
             +---------------------------------------------------+
 
 ******************************************************************************
 * -> Using CODATA 2006 constant values                                       *
 *    (http://physics.nist.gov/cuu/Constants/index.html)                      *
 * -> Using Bohr value from CODATA                                            *
 ******************************************************************************
 

 Running in parallel on 144 CPUs

 
                                    ------
                                    SYSTEM
                                    ------
 
                              Lattice Vectors (Ang)
                    a_1    13.784171   0.000000   0.000000
                    a_2    -6.892085  11.937442   0.000000
                    a_3     0.000000   0.000000  23.631430
 
                   Unit Cell Volume:    3888.49848  (Ang^3)
 
                        Reciprocal-Space Vectors (Ang^-1)
                    b_1     0.455826   0.263171   0.000000
                    b_2     0.000000   0.526343   0.000000
                    b_3     0.000000   0.000000   0.265883
  
 *----------------------------------------------------------------------------*
 |   Site       Fractional Coordinate          Cartesian Coordinate (Ang)     |
 +----------------------------------------------------------------------------+
 | Nb   1   0.00000   0.00000   0.07097   |    0.00000   0.00000   1.67715    |
 | Nb   2   0.25000   0.00000   0.07097   |    3.44604   0.00000   1.67715    |
 | Nb   3   0.50000   0.00000   0.07097   |    6.89209   0.00000   1.67715    |
 | Nb   4   0.75000   0.00000   0.07097   |   10.33813   0.00000   1.67715    |
 | Nb   5   0.75000   0.25000   0.07097   |    8.61511   2.98436   1.67715    |
 | Nb   6   0.75000   0.50000   0.07097   |    6.89209   5.96872   1.67715    |
 | Nb   7   0.75000   0.75000   0.07097   |    5.16906   8.95308   1.67715    |
 | Nb   8   0.50000   0.75000   0.07097   |    1.72302   8.95308   1.67715    |
 | Nb   9   0.25000   0.75000   0.07097   |   -1.72302   8.95308   1.67715    |
 | Nb  10   0.00000   0.75000   0.07097   |   -5.16906   8.95308   1.67715    |
 | Nb  11   0.50000   0.25000   0.07097   |    5.16906   2.98436   1.67715    |
 | Nb  12   0.50000   0.50000   0.07097   |    3.44604   5.96872   1.67715    |
 | Nb  13   0.25000   0.50000   0.07097   |    0.00000   5.96872   1.67715    |
 | Nb  14   0.25000   0.25000   0.07097   |    1.72302   2.98436   1.67715    |
 | Nb  15   0.00000   0.25000   0.07097   |   -1.72302   2.98436   1.67715    |
 | Nb  16   0.00000   0.50000   0.07097   |   -3.44604   5.96872   1.67715    |
 | Se   1   0.16667   0.08333   0.00000   |    1.72302   0.99479   0.00000    |
 | Se   2   0.16667   0.08333   0.14194   |    1.72302   0.99479   3.35430    |
 | Se   3   0.41667   0.08333   0.00000   |    5.16906   0.99479   0.00000    |
 | Se   4   0.41667   0.08333   0.14194   |    5.16906   0.99479   3.35430    |
 | Se   5   0.66667   0.08333   0.00000   |    8.61511   0.99479   0.00000    |
 | Se   6   0.66667   0.08333   0.14194   |    8.61511   0.99479   3.35430    |
 | Se   7   0.91667   0.08333   0.00000   |   12.06115   0.99479   0.00000    |
 | Se   8   0.91667   0.08333   0.14194   |   12.06115   0.99479   3.35430    |
 | Se   9   0.91667   0.33333   0.00000   |   10.33813   3.97915   0.00000    |
 | Se  10   0.91667   0.33333   0.14194   |   10.33813   3.97915   3.35430    |
 | Se  11   0.91667   0.58333   0.00000   |    8.61511   6.96351   0.00000    |
 | Se  12   0.91667   0.58333   0.14194   |    8.61511   6.96351   3.35430    |
 | Se  13   0.91667   0.83333   0.00000   |    6.89209   9.94787   0.00000    |
 | Se  14   0.91667   0.83333   0.14194   |    6.89209   9.94787   3.35430    |
 | Se  15   0.66667   0.83333   0.00000   |    3.44604   9.94787   0.00000    |
 | Se  16   0.66667   0.83333   0.14194   |    3.44604   9.94787   3.35430    |
 | Se  17   0.41667   0.83333   0.00000   |    0.00000   9.94787   0.00000    |
 | Se  18   0.41667   0.83333   0.14194   |    0.00000   9.94787   3.35430    |
 | Se  19   0.16667   0.83333   0.00000   |   -3.44604   9.94787   0.00000    |
 | Se  20   0.16667   0.83333   0.14194   |   -3.44604   9.94787   3.35430    |
 | Se  21   0.66667   0.33333   0.00000   |    6.89209   3.97915   0.00000    |
 | Se  22   0.66667   0.33333   0.14194   |    6.89209   3.97915   3.35430    |
 | Se  23   0.66667   0.58333   0.00000   |    5.16906   6.96351   0.00000    |
 | Se  24   0.66667   0.58333   0.14194   |    5.16906   6.96351   3.35430    |
 | Se  25   0.41667   0.58333   0.00000   |    1.72302   6.96351   0.00000    |
 | Se  26   0.41667   0.58333   0.14194   |    1.72302   6.96351   3.35430    |
 | Se  27   0.41667   0.33333   0.00000   |    3.44604   3.97915   0.00000    |
 | Se  28   0.41667   0.33333   0.14194   |    3.44604   3.97915   3.35430    |
 | Se  29   0.16667   0.33333   0.00000   |    0.00000   3.97915   0.00000    |
 | Se  30   0.16667   0.33333   0.14194   |    0.00000   3.97915   3.35430    |
 | Se  31   0.16667   0.58333   0.00000   |   -1.72302   6.96351   0.00000    |
 | Se  32   0.16667   0.58333   0.14194   |   -1.72302   6.96351   3.35430    |
 *----------------------------------------------------------------------------*
                                -----------
                                PROJECTIONS
                                -----------
  
 +----------------------------------------------------------------------------+
 |     Frac. Coord.   l mr  r        z-axis               x-axis          Z/a |
 +----------------------------------------------------------------------------+
 |  0.00  0.00  0.07  2  1  1  0.000  0.000  1.000  1.000  0.000  0.000   1.0 |
 |  0.00  0.00  0.07  2  2  1  0.000  0.000  1.000  1.000  0.000  0.000   1.0 |
 |  0.00  0.00  0.07  2  3  1  0.000  0.000  1.000  1.000  0.000  0.000   1.0 |
 |  0.00  0.00  0.07  2  4  1  0.000  0.000  1.000  1.000  0.000  0.000   1.0 |
 |  0.00  0.00  0.07  2  5  1  0.000  0.000  1.000  1.000  0.000  0.000   1.0 |
 |  0.25  0.00  0.07  2  1  1  0.000  0.000  1.000  1.000  0.000  0.000   1.0 |
 |  0.25  0.00  0.07  2  2  1  0.000  0.000  1.000  1.000  0.000  0.000   1.0 |
 |  0.25  0.00  0.07  2  3  1  0.000  0.000  1.000  1.000  0.000  0.000   1.0 |
 |  0.25  0.00  0.07  2  4  1  0.000  0.000  1.000  1.000  0.000  0.000   1.0 |
 |  0.25  0.00  0.07  2  5  1  0.000  0.000  1.000  1.000  0.000  0.000   1.0 |
 |  0.50  0.00  0.07  2  1  1  0.000  0.000  1.000  1.000  0.000  0.000   1.0 |
 |  0.50  0.00  0.07  2  2  1  0.000  0.000  1.000  1.000  0.000  0.000   1.0 |
 |  0.50  0.00  0.07  2  3  1  0.000  0.000  1.000  1.000  0.000  0.000   1.0 |
 |  0.50  0.00  0.07  2  4  1  0.000  0.000  1.000  1.000  0.000  0.000   1.0 |
 |  0.50  0.00  0.07  2  5  1  0.000  0.000  1.000  1.000  0.000  0.000   1.0 |
 |  0.75  0.00  0.07  2  1  1  0.000  0.000  1.000  1.000  0.000  0.000   1.0 |
 |  0.75  0.00  0.07  2  2  1  0.000  0.000  1.000  1.000  0.000  0.000   1.0 |
 |  0.75  0.00  0.07  2  3  1  0.000  0.000  1.000  1.000  0.000  0.000   1.0 |
 |  0.75  0.00  0.07  2  4  1  0.000  0.000  1.000  1.000  0.000  0.000   1.0 |
 |  0.75  0.00  0.07  2  5  1  0.000  0.000  1.000  1.000  0.000  0.000   1.0 |
 |  0.75  0.25  0.07  2  1  1  0.000  0.000  1.000  1.000  0.000  0.000   1.0 |
 |  0.75  0.25  0.07  2  2  1  0.000  0.000  1.000  1.000  0.000  0.000   1.0 |
 |  0.75  0.25  0.07  2  3  1  0.000  0.000  1.000  1.000  0.000  0.000   1.0 |
 |  0.75  0.25  0.07  2  4  1  0.000  0.000  1.000  1.000  0.000  0.000   1.0 |
 |  0.75  0.25  0.07  2  5  1  0.000  0.000  1.000  1.000  0.000  0.000   1.0 |
 |  0.75  0.50  0.07  2  1  1  0.000  0.000  1.000  1.000  0.000  0.000   1.0 |
 |  0.75  0.50  0.07  2  2  1  0.000  0.000  1.000  1.000  0.000  0.000   1.0 |
 |  0.75  0.50  0.07  2  3  1  0.000  0.000  1.000  1.000  0.000  0.000   1.0 |
 |  0.75  0.50  0.07  2  4  1  0.000  0.000  1.000  1.000  0.000  0.000   1.0 |
 |  0.75  0.50  0.07  2  5  1  0.000  0.000  1.000  1.000  0.000  0.000   1.0 |
 |  0.75  0.75  0.07  2  1  1  0.000  0.000  1.000  1.000  0.000  0.000   1.0 |
 |  0.75  0.75  0.07  2  2  1  0.000  0.000  1.000  1.000  0.000  0.000   1.0 |
 |  0.75  0.75  0.07  2  3  1  0.000  0.000  1.000  1.000  0.000  0.000   1.0 |
 |  0.75  0.75  0.07  2  4  1  0.000  0.000  1.000  1.000  0.000  0.000   1.0 |
 |  0.75  0.75  0.07  2  5  1  0.000  0.000  1.000  1.000  0.000  0.000   1.0 |
 |  0.50  0.75  0.07  2  1  1  0.000  0.000  1.000  1.000  0.000  0.000   1.0 |
 |  0.50  0.75  0.07  2  2  1  0.000  0.000  1.000  1.000  0.000  0.000   1.0 |
 |  0.50  0.75  0.07  2  3  1  0.000  0.000  1.000  1.000  0.000  0.000   1.0 |
 |  0.50  0.75  0.07  2  4  1  0.000  0.000  1.000  1.000  0.000  0.000   1.0 |
 |  0.50  0.75  0.07  2  5  1  0.000  0.000  1.000  1.000  0.000  0.000   1.0 |
 |  0.25  0.75  0.07  2  1  1  0.000  0.000  1.000  1.000  0.000  0.000   1.0 |
 |  0.25  0.75  0.07  2  2  1  0.000  0.000  1.000  1.000  0.000  0.000   1.0 |
 |  0.25  0.75  0.07  2  3  1  0.000  0.000  1.000  1.000  0.000  0.000   1.0 |
 |  0.25  0.75  0.07  2  4  1  0.000  0.000  1.000  1.000  0.000  0.000   1.0 |
 |  0.25  0.75  0.07  2  5  1  0.000  0.000  1.000  1.000  0.000  0.000   1.0 |
 |  0.00  0.75  0.07  2  1  1  0.000  0.000  1.000  1.000  0.000  0.000   1.0 |
 |  0.00  0.75  0.07  2  2  1  0.000  0.000  1.000  1.000  0.000  0.000   1.0 |
 |  0.00  0.75  0.07  2  3  1  0.000  0.000  1.000  1.000  0.000  0.000   1.0 |
 |  0.00  0.75  0.07  2  4  1  0.000  0.000  1.000  1.000  0.000  0.000   1.0 |
 |  0.00  0.75  0.07  2  5  1  0.000  0.000  1.000  1.000  0.000  0.000   1.0 |
 |  0.50  0.25  0.07  2  1  1  0.000  0.000  1.000  1.000  0.000  0.000   1.0 |
 |  0.50  0.25  0.07  2  2  1  0.000  0.000  1.000  1.000  0.000  0.000   1.0 |
 |  0.50  0.25  0.07  2  3  1  0.000  0.000  1.000  1.000  0.000  0.000   1.0 |
 |  0.50  0.25  0.07  2  4  1  0.000  0.000  1.000  1.000  0.000  0.000   1.0 |
 |  0.50  0.25  0.07  2  5  1  0.000  0.000  1.000  1.000  0.000  0.000   1.0 |
 |  0.50  0.50  0.07  2  1  1  0.000  0.000  1.000  1.000  0.000  0.000   1.0 |
 |  0.50  0.50  0.07  2  2  1  0.000  0.000  1.000  1.000  0.000  0.000   1.0 |
 |  0.50  0.50  0.07  2  3  1  0.000  0.000  1.000  1.000  0.000  0.000   1.0 |
 |  0.50  0.50  0.07  2  4  1  0.000  0.000  1.000  1.000  0.000  0.000   1.0 |
 |  0.50  0.50  0.07  2  5  1  0.000  0.000  1.000  1.000  0.000  0.000   1.0 |
 |  0.25  0.50  0.07  2  1  1  0.000  0.000  1.000  1.000  0.000  0.000   1.0 |
 |  0.25  0.50  0.07  2  2  1  0.000  0.000  1.000  1.000  0.000  0.000   1.0 |
 |  0.25  0.50  0.07  2  3  1  0.000  0.000  1.000  1.000  0.000  0.000   1.0 |
 |  0.25  0.50  0.07  2  4  1  0.000  0.000  1.000  1.000  0.000  0.000   1.0 |
 |  0.25  0.50  0.07  2  5  1  0.000  0.000  1.000  1.000  0.000  0.000   1.0 |
 |  0.25  0.25  0.07  2  1  1  0.000  0.000  1.000  1.000  0.000  0.000   1.0 |
 |  0.25  0.25  0.07  2  2  1  0.000  0.000  1.000  1.000  0.000  0.000   1.0 |
 |  0.25  0.25  0.07  2  3  1  0.000  0.000  1.000  1.000  0.000  0.000   1.0 |
 |  0.25  0.25  0.07  2  4  1  0.000  0.000  1.000  1.000  0.000  0.000   1.0 |
 |  0.25  0.25  0.07  2  5  1  0.000  0.000  1.000  1.000  0.000  0.000   1.0 |
 |  0.00  0.25  0.07  2  1  1  0.000  0.000  1.000  1.000  0.000  0.000   1.0 |
 |  0.00  0.25  0.07  2  2  1  0.000  0.000  1.000  1.000  0.000  0.000   1.0 |
 |  0.00  0.25  0.07  2  3  1  0.000  0.000  1.000  1.000  0.000  0.000   1.0 |
 |  0.00  0.25  0.07  2  4  1  0.000  0.000  1.000  1.000  0.000  0.000   1.0 |
 |  0.00  0.25  0.07  2  5  1  0.000  0.000  1.000  1.000  0.000  0.000   1.0 |
 |  0.00  0.50  0.07  2  1  1  0.000  0.000  1.000  1.000  0.000  0.000   1.0 |
 |  0.00  0.50  0.07  2  2  1  0.000  0.000  1.000  1.000  0.000  0.000   1.0 |
 |  0.00  0.50  0.07  2  3  1  0.000  0.000  1.000  1.000  0.000  0.000   1.0 |
 |  0.00  0.50  0.07  2  4  1  0.000  0.000  1.000  1.000  0.000  0.000   1.0 |
 |  0.00  0.50  0.07  2  5  1  0.000  0.000  1.000  1.000  0.000  0.000   1.0 |
 |  0.17  0.08  0.00  1  1  1  0.000  0.000  1.000  1.000  0.000  0.000   1.0 |
 |  0.17  0.08  0.00  1  2  1  0.000  0.000  1.000  1.000  0.000  0.000   1.0 |
 |  0.17  0.08  0.00  1  3  1  0.000  0.000  1.000  1.000  0.000  0.000   1.0 |
 |  0.17  0.08  0.14  1  1  1  0.000  0.000  1.000  1.000  0.000  0.000   1.0 |
 |  0.17  0.08  0.14  1  2  1  0.000  0.000  1.000  1.000  0.000  0.000   1.0 |
 |  0.17  0.08  0.14  1  3  1  0.000  0.000  1.000  1.000  0.000  0.000   1.0 |
 |  0.42  0.08  0.00  1  1  1  0.000  0.000  1.000  1.000  0.000  0.000   1.0 |
 |  0.42  0.08  0.00  1  2  1  0.000  0.000  1.000  1.000  0.000  0.000   1.0 |
 |  0.42  0.08  0.00  1  3  1  0.000  0.000  1.000  1.000  0.000  0.000   1.0 |
 |  0.42  0.08  0.14  1  1  1  0.000  0.000  1.000  1.000  0.000  0.000   1.0 |
 |  0.42  0.08  0.14  1  2  1  0.000  0.000  1.000  1.000  0.000  0.000   1.0 |
 |  0.42  0.08  0.14  1  3  1  0.000  0.000  1.000  1.000  0.000  0.000   1.0 |
 |  0.67  0.08  0.00  1  1  1  0.000  0.000  1.000  1.000  0.000  0.000   1.0 |
 |  0.67  0.08  0.00  1  2  1  0.000  0.000  1.000  1.000  0.000  0.000   1.0 |
 |  0.67  0.08  0.00  1  3  1  0.000  0.000  1.000  1.000  0.000  0.000   1.0 |
 |  0.67  0.08  0.14  1  1  1  0.000  0.000  1.000  1.000  0.000  0.000   1.0 |
 |  0.67  0.08  0.14  1  2  1  0.000  0.000  1.000  1.000  0.000  0.000   1.0 |
 |  0.67  0.08  0.14  1  3  1  0.000  0.000  1.000  1.000  0.000  0.000   1.0 |
 |  0.92  0.08  0.00  1  1  1  0.000  0.000  1.000  1.000  0.000  0.000   1.0 |
 |  0.92  0.08  0.00  1  2  1  0.000  0.000  1.000  1.000  0.000  0.000   1.0 |
 |  0.92  0.08  0.00  1  3  1  0.000  0.000  1.000  1.000  0.000  0.000   1.0 |
 |  0.92  0.08  0.14  1  1  1  0.000  0.000  1.000  1.000  0.000  0.000   1.0 |
 |  0.92  0.08  0.14  1  2  1  0.000  0.000  1.000  1.000  0.000  0.000   1.0 |
 |  0.92  0.08  0.14  1  3  1  0.000  0.000  1.000  1.000  0.000  0.000   1.0 |
 |  0.92  0.33  0.00  1  1  1  0.000  0.000  1.000  1.000  0.000  0.000   1.0 |
 |  0.92  0.33  0.00  1  2  1  0.000  0.000  1.000  1.000  0.000  0.000   1.0 |
 |  0.92  0.33  0.00  1  3  1  0.000  0.000  1.000  1.000  0.000  0.000   1.0 |
 |  0.92  0.33  0.14  1  1  1  0.000  0.000  1.000  1.000  0.000  0.000   1.0 |
 |  0.92  0.33  0.14  1  2  1  0.000  0.000  1.000  1.000  0.000  0.000   1.0 |
 |  0.92  0.33  0.14  1  3  1  0.000  0.000  1.000  1.000  0.000  0.000   1.0 |
 |  0.92  0.58  0.00  1  1  1  0.000  0.000  1.000  1.000  0.000  0.000   1.0 |
 |  0.92  0.58  0.00  1  2  1  0.000  0.000  1.000  1.000  0.000  0.000   1.0 |
 |  0.92  0.58  0.00  1  3  1  0.000  0.000  1.000  1.000  0.000  0.000   1.0 |
 |  0.92  0.58  0.14  1  1  1  0.000  0.000  1.000  1.000  0.000  0.000   1.0 |
 |  0.92  0.58  0.14  1  2  1  0.000  0.000  1.000  1.000  0.000  0.000   1.0 |
 |  0.92  0.58  0.14  1  3  1  0.000  0.000  1.000  1.000  0.000  0.000   1.0 |
 |  0.92  0.83  0.00  1  1  1  0.000  0.000  1.000  1.000  0.000  0.000   1.0 |
 |  0.92  0.83  0.00  1  2  1  0.000  0.000  1.000  1.000  0.000  0.000   1.0 |
 |  0.92  0.83  0.00  1  3  1  0.000  0.000  1.000  1.000  0.000  0.000   1.0 |
 |  0.92  0.83  0.14  1  1  1  0.000  0.000  1.000  1.000  0.000  0.000   1.0 |
 |  0.92  0.83  0.14  1  2  1  0.000  0.000  1.000  1.000  0.000  0.000   1.0 |
 |  0.92  0.83  0.14  1  3  1  0.000  0.000  1.000  1.000  0.000  0.000   1.0 |
 |  0.67  0.83  0.00  1  1  1  0.000  0.000  1.000  1.000  0.000  0.000   1.0 |
 |  0.67  0.83  0.00  1  2  1  0.000  0.000  1.000  1.000  0.000  0.000   1.0 |
 |  0.67  0.83  0.00  1  3  1  0.000  0.000  1.000  1.000  0.000  0.000   1.0 |
 |  0.67  0.83  0.14  1  1  1  0.000  0.000  1.000  1.000  0.000  0.000   1.0 |
 |  0.67  0.83  0.14  1  2  1  0.000  0.000  1.000  1.000  0.000  0.000   1.0 |
 |  0.67  0.83  0.14  1  3  1  0.000  0.000  1.000  1.000  0.000  0.000   1.0 |
 |  0.42  0.83  0.00  1  1  1  0.000  0.000  1.000  1.000  0.000  0.000   1.0 |
 |  0.42  0.83  0.00  1  2  1  0.000  0.000  1.000  1.000  0.000  0.000   1.0 |
 |  0.42  0.83  0.00  1  3  1  0.000  0.000  1.000  1.000  0.000  0.000   1.0 |
 |  0.42  0.83  0.14  1  1  1  0.000  0.000  1.000  1.000  0.000  0.000   1.0 |
 |  0.42  0.83  0.14  1  2  1  0.000  0.000  1.000  1.000  0.000  0.000   1.0 |
 |  0.42  0.83  0.14  1  3  1  0.000  0.000  1.000  1.000  0.000  0.000   1.0 |
 |  0.17  0.83  0.00  1  1  1  0.000  0.000  1.000  1.000  0.000  0.000   1.0 |
 |  0.17  0.83  0.00  1  2  1  0.000  0.000  1.000  1.000  0.000  0.000   1.0 |
 |  0.17  0.83  0.00  1  3  1  0.000  0.000  1.000  1.000  0.000  0.000   1.0 |
 |  0.17  0.83  0.14  1  1  1  0.000  0.000  1.000  1.000  0.000  0.000   1.0 |
 |  0.17  0.83  0.14  1  2  1  0.000  0.000  1.000  1.000  0.000  0.000   1.0 |
 |  0.17  0.83  0.14  1  3  1  0.000  0.000  1.000  1.000  0.000  0.000   1.0 |
 |  0.67  0.33  0.00  1  1  1  0.000  0.000  1.000  1.000  0.000  0.000   1.0 |
 |  0.67  0.33  0.00  1  2  1  0.000  0.000  1.000  1.000  0.000  0.000   1.0 |
 |  0.67  0.33  0.00  1  3  1  0.000  0.000  1.000  1.000  0.000  0.000   1.0 |
 |  0.67  0.33  0.14  1  1  1  0.000  0.000  1.000  1.000  0.000  0.000   1.0 |
 |  0.67  0.33  0.14  1  2  1  0.000  0.000  1.000  1.000  0.000  0.000   1.0 |
 |  0.67  0.33  0.14  1  3  1  0.000  0.000  1.000  1.000  0.000  0.000   1.0 |
 |  0.67  0.58  0.00  1  1  1  0.000  0.000  1.000  1.000  0.000  0.000   1.0 |
 |  0.67  0.58  0.00  1  2  1  0.000  0.000  1.000  1.000  0.000  0.000   1.0 |
 |  0.67  0.58  0.00  1  3  1  0.000  0.000  1.000  1.000  0.000  0.000   1.0 |
 |  0.67  0.58  0.14  1  1  1  0.000  0.000  1.000  1.000  0.000  0.000   1.0 |
 |  0.67  0.58  0.14  1  2  1  0.000  0.000  1.000  1.000  0.000  0.000   1.0 |
 |  0.67  0.58  0.14  1  3  1  0.000  0.000  1.000  1.000  0.000  0.000   1.0 |
 |  0.42  0.58  0.00  1  1  1  0.000  0.000  1.000  1.000  0.000  0.000   1.0 |
 |  0.42  0.58  0.00  1  2  1  0.000  0.000  1.000  1.000  0.000  0.000   1.0 |
 |  0.42  0.58  0.00  1  3  1  0.000  0.000  1.000  1.000  0.000  0.000   1.0 |
 |  0.42  0.58  0.14  1  1  1  0.000  0.000  1.000  1.000  0.000  0.000   1.0 |
 |  0.42  0.58  0.14  1  2  1  0.000  0.000  1.000  1.000  0.000  0.000   1.0 |
 |  0.42  0.58  0.14  1  3  1  0.000  0.000  1.000  1.000  0.000  0.000   1.0 |
 |  0.42  0.33  0.00  1  1  1  0.000  0.000  1.000  1.000  0.000  0.000   1.0 |
 |  0.42  0.33  0.00  1  2  1  0.000  0.000  1.000  1.000  0.000  0.000   1.0 |
 |  0.42  0.33  0.00  1  3  1  0.000  0.000  1.000  1.000  0.000  0.000   1.0 |
 |  0.42  0.33  0.14  1  1  1  0.000  0.000  1.000  1.000  0.000  0.000   1.0 |
 |  0.42  0.33  0.14  1  2  1  0.000  0.000  1.000  1.000  0.000  0.000   1.0 |
 |  0.42  0.33  0.14  1  3  1  0.000  0.000  1.000  1.000  0.000  0.000   1.0 |
 |  0.17  0.33  0.00  1  1  1  0.000  0.000  1.000  1.000  0.000  0.000   1.0 |
 |  0.17  0.33  0.00  1  2  1  0.000  0.000  1.000  1.000  0.000  0.000   1.0 |
 |  0.17  0.33  0.00  1  3  1  0.000  0.000  1.000  1.000  0.000  0.000   1.0 |
 |  0.17  0.33  0.14  1  1  1  0.000  0.000  1.000  1.000  0.000  0.000   1.0 |
 |  0.17  0.33  0.14  1  2  1  0.000  0.000  1.000  1.000  0.000  0.000   1.0 |
 |  0.17  0.33  0.14  1  3  1  0.000  0.000  1.000  1.000  0.000  0.000   1.0 |
 |  0.17  0.58  0.00  1  1  1  0.000  0.000  1.000  1.000  0.000  0.000   1.0 |
 |  0.17  0.58  0.00  1  2  1  0.000  0.000  1.000  1.000  0.000  0.000   1.0 |
 |  0.17  0.58  0.00  1  3  1  0.000  0.000  1.000  1.000  0.000  0.000   1.0 |
 |  0.17  0.58  0.14  1  1  1  0.000  0.000  1.000  1.000  0.000  0.000   1.0 |
 |  0.17  0.58  0.14  1  2  1  0.000  0.000  1.000  1.000  0.000  0.000   1.0 |
 |  0.17  0.58  0.14  1  3  1  0.000  0.000  1.000  1.000  0.000  0.000   1.0 |
 +----------------------------------------------------------------------------+
  
                                ------------
                                K-POINT GRID
                                ------------
  
             Grid size =  3 x  3 x  1      Total points =    9
  
 *----------------------------------------------------------------------------*
 | k-point      Fractional Coordinate        Cartesian Coordinate (Ang^-1)    |
 +----------------------------------------------------------------------------+
 |     1    0.00000   0.00000   0.00000   |    0.00000   0.00000   0.00000    |
 |     2    0.00000   0.33333   0.00000   |    0.00000   0.17545   0.00000    |
 |     3    0.00000   0.66667   0.00000   |    0.00000   0.35090   0.00000    |
 |     4    0.33333   0.00000   0.00000   |    0.15194   0.08772   0.00000    |
 |     5    0.33333   0.33333   0.00000   |    0.15194   0.26317   0.00000    |
 |     6    0.33333   0.66667   0.00000   |    0.15194   0.43862   0.00000    |
 |     7    0.66667   0.00000   0.00000   |    0.30388   0.17545   0.00000    |
 |     8    0.66667   0.33333   0.00000   |    0.30388   0.35090   0.00000    |
 |     9    0.66667   0.66667   0.00000   |    0.30388   0.52634   0.00000    |
 *----------------------------------------------------------------------------*
  
  
 *---------------------------------- MAIN ------------------------------------*
 |  Number of Wannier Functions               :               176             |
 |  Number of Objective Wannier Functions     :               176             |
 |  Number of input Bloch states              :               300             |
 |  Output verbosity (1=low, 5=high)          :                 3             |
 |  Timing Level (1=low, 5=high)              :                 1             |
 |  Optimisation (0=memory, 3=speed)          :                 3             |
 |  Length Unit                               :               Ang             |
 |  Post-processing setup (write *.nnkp)      :                 F             |
 |  Using Gamma-only branch of algorithms     :                 F             |
 |  CP code post-processing                   :                 F             |
 |  Wavefunction (UNK) file-type              :       unformatted             |
 |  Wavefunction spin channel                 :                up             |
 *----------------------------------------------------------------------------*
 *------------------------------- WANNIERISE ---------------------------------*
 |  Total number of iterations                :               500             |
 |  Number of CG steps before reset           :                 5             |
 |  Trial step length for line search         :             2.000             |
 |  Convergence tolerence                     :         0.100E-09             |
 |  Convergence window                        :                -1             |
 |  Iterations between writing output         :                50             |
 |  Iterations between backing up to disk     :               100             |
 |  Write r^2_nm to file                      :                 F             |
 |  Write xyz WF centres to file              :                 T             |
 |  Write on-site energies <0n|H|0n> to file  :                 F             |
 |  Use guiding centre to control phases      :                 T             |
 |  Use phases for initial projections        :                 F             |
 |  Iterations before starting guiding centres:                 0             |
 |  Iterations between using guiding centres  :                 1             |
 |  Perform selective localization            :                 F             |
 |  Use constrains in selective localization  :                 F             |
 |  Value of the Lagrange multiplier          :         0.100E+01             |
 *----------------------------------------------------------------------------*
 *------------------------------- DISENTANGLE --------------------------------*
 |  Using band disentanglement                :                 T             |
 |  Total number of iterations                :              4000             |
 |  Mixing ratio                              :             0.500             |
 |  Convergence tolerence                     :         1.000E-10             |
 |  Convergence window                        :                 3             |
 *----------------------------------------------------------------------------*
 *-------------------------------- PLOTTING ----------------------------------*
 |  Plotting Wannier functions                :                 F             |
 |   Size of supercell for plotting           :     2x    2x    2             |
 |   Plotting mode (molecule or crystal)      :           crystal             |
 |   Plotting format                          :          xcrysden             |
 |   Plot radius                              :             3.500             |
 |   Plot scale                               :             1.000             |
 *----------------------------------------------------------------------------*
 |  Plotting Fermi surface                    :                 F             |
 |   Number of plotting points (along b_1)    :                50             |
 |   Plotting format                          :          xcrysden             |
 *----------------------------------------------------------------------------*
 |  Plotting interpolated bandstructure       :                 T             |
 |   Number of K-path sections                :                 3             |
 |   Divisions along first K-path section     :               100             |
 |   Output format                            :           gnuplot             |
 |   Output mode                              :               s-k             |
 *----------------------------------------------------------------------------*
 |   K-space path sections:                                                   |
 |    From: Γ      0.000  0.000  0.000     To: K       0.333  0.333  0.000   |
 |    From: K       0.333  0.333  0.000     To: M       0.500  0.000  0.000   |
 |    From: M       0.500  0.000  0.000     To: Γ      0.000  0.000  0.000   |
 *----------------------------------------------------------------------------*
 |  Plotting Hamiltonian in WF basis          :                 T             |
 *----------------------------------------------------------------------------*
 |  Writing data for Van der Waals post-proc  :                 F             |
 *----------------------------------------------------------------------------*
 *------------------------------- TRANSPORT ----------------------------------*
 |  Transport mode                            :              bulk             |
 |   Hamiltonian from external files          :                 F             |
 |   System extended in                       :              none             |
 |   Centre of the unit cell to which WF are translated (fract. coords):      |
 |                                       0.000000,    0.000000,    0.000000   |
 |  Fermi energy (eV)                         :             0.000             |
 *----------------------------------------------------------------------------*
 Time to read parameters        0.010 (sec)

 *---------------------------------- K-MESH ----------------------------------*
 +----------------------------------------------------------------------------+
 |                    Distance to Nearest-Neighbour Shells                    |
 |                    ------------------------------------                    |
 |          Shell             Distance (Ang^-1)          Multiplicity         |
 |          -----             -----------------          ------------         |
 |             1                   0.175448                      6            |
 |             2                   0.265883                      2            |
 |             3                   0.303884                      6            |
 |             4                   0.318552                     12            |
 |             5                   0.350895                      6            |
 |             6                   0.403781                     12            |
 |             7                   0.440251                     12            |
 |             8                   0.464191                     12            |
 |             9                   0.526343                      6            |
 |            10                   0.531765                      2            |
 |            11                   0.534945                     24            |
 |            12                   0.559961                     12            |
 |            13                   0.589686                     12            |
 |            14                   0.607768                      6            |
 |            15                   0.612470                     12            |
 |            16                   0.632585                     12            |
 |            17                   0.637104                     12            |
 |            18                   0.663382                     12            |
 |            19                   0.686191                     24            |
 |            20                   0.701790                      6            |
 |            21                   0.705866                     24            |
 |            22                   0.748205                     12            |
 |            23                   0.750469                     12            |
 |            24                   0.764758                     12            |
 |            25                   0.797648                      2            |
 |            26                   0.804002                     12            |
 |            27                   0.807562                     12            |
 |            28                   0.809660                     24            |
 |            29                   0.816715                     12            |
 |            30                   0.826401                     24            |
 |            31                   0.846825                     24            |
 |            32                   0.853573                     12            |
 |            33                   0.871418                     12            |
 |            34                   0.877238                      6            |
 |            35                   0.880502                     12            |
 |            36                   0.911652                      6            |
 +----------------------------------------------------------------------------+
 | The b-vectors are chosen automatically                                     |
 | Shell:  1 Multiplicity:  6                                                 |
 | b-vector 1 :        0.000000    0.175448    0.000000      (Ang^-1)         |
 | b-vector 2 :        0.151942    0.087724    0.000000      (Ang^-1)         |
 | b-vector 3 :        0.000000   -0.175448    0.000000      (Ang^-1)         |
 | b-vector 4 :        0.151942   -0.087724    0.000000      (Ang^-1)         |
 | b-vector 5 :       -0.151942   -0.087724    0.000000      (Ang^-1)         |
 | b-vector 6 :       -0.151942    0.087724    0.000000      (Ang^-1)         |
 | Shell:  1 w_b   10.8288937      (Ang^2)                                    |
 | B1 condition is not satisfied: Adding another shell                        |
 | Shell:  2 Multiplicity:  2                                                 |
 | b-vector 1 :        0.000000    0.000000    0.265883      (Ang^-1)         |
 | b-vector 2 :        0.000000    0.000000   -0.265883      (Ang^-1)         |
 | Shell:  1 w_b   10.8288937      (Ang^2)                                    |
 | Shell:  2 w_b    7.0727819      (Ang^2)                                    |
 | The following shells are used:   1,  2                                     |
 +----------------------------------------------------------------------------+
 |                        Shell   # Nearest-Neighbours                        |
 |                        -----   --------------------                        |
 |                          1               6                                 |
 |                          2               2                                 |
 +----------------------------------------------------------------------------+
 | Completeness relation is fully satisfied [Eq. (B1), PRB 56, 12847 (1997)]  |
 +----------------------------------------------------------------------------+
 |                  b_k Vectors (Ang^-1) and Weights (Ang^2)                  |
 |                  ----------------------------------------                  |
 |            No.         b_k(x)      b_k(y)      b_k(z)        w_b           |
 |            ---        --------------------------------     --------        |
 |             1         0.000000    0.175448    0.000000    10.828894        |
 |             2         0.151942    0.087724    0.000000    10.828894        |
 |             3         0.000000   -0.175448    0.000000    10.828894        |
 |             4         0.151942   -0.087724    0.000000    10.828894        |
 |             5        -0.151942   -0.087724    0.000000    10.828894        |
 |             6        -0.151942    0.087724    0.000000    10.828894        |
 |             7         0.000000    0.000000    0.265883     7.072782        |
 |             8         0.000000    0.000000   -0.265883     7.072782        |
 +----------------------------------------------------------------------------+
 |                           b_k Directions (Ang^-1)                          |
 |                           -----------------------                          |
 |            No.           x           y           z                         |
 |            ---        --------------------------------                     |
 |             1         0.000000    0.175448    0.000000                     |
 |             2         0.151942    0.087724    0.000000                     |
 |             3         0.151942   -0.087724    0.000000                     |
 |             4         0.000000    0.000000    0.265883                     |
 +----------------------------------------------------------------------------+
  
 Time to get kmesh              0.011 (sec)
 *============================================================================*
 |                              MEMORY ESTIMATE                               |
 |         Maximum RAM allocated during each phase of the calculation         |
 *============================================================================*
 |                        Disentanglement          151.78 Mb                  |
 |                            Wannierise:           95.30 Mb                  |
 |                                                                            |
 |   N.B. by setting optimisation=0 memory usage will be reduced to:          |
 |                        Disentanglement          146.64 Mb                  |
 |                            Wannierise:           61.27 Mb                  |
 |   However, this will result in more i/o and slow down the calculation      |
 |                          plot_wannier:           95.30 Mb                  |
 *----------------------------------------------------------------------------*
  
 Starting a new Wannier90 calculation ...


 Reading overlaps from 1Fe_initialconf.down.mmn    :  Created on  4Oct2023 at 15: 1:18

 Reading projections from 1Fe_initialconf.down.amn :  Created on  4Oct2023 at 14:57:12

 Time to read overlaps          6.123 (sec)

 *------------------------------- DISENTANGLE --------------------------------*
 +----------------------------------------------------------------------------+
 |                              Energy  Windows                               |
 |                              ---------------                               |
 |                   Outer:  -30.00000  to   30.00000  (eV)                   |
 |                   Inner:   -6.00000  to    2.00000  (eV)                   |
 +----------------------------------------------------------------------------+
 |                        K-points with Frozen States                         |
 |                        ---------------------------                         |
 |     1     2     3     4     5     6     7     8     9                      |
 +----------------------------------------------------------------------------+
   Number of target bands to extract:  176
 +----------------------------------------------------------------------------+
 |                                  Windows                                   |
 |                                  -------                                   |
 |               K-point      Ndimwin     Ndimfroz    Nfirstwin               |
 |               ----------------------------------------------               |
 |                   1          236          154          65                  |
 |                   2          236          151          65                  |
 |                   3          236          151          65                  |
 |                   4          236          151          65                  |
 |                   5          236          147          65                  |
 |                   6          236          151          65                  |
 |                   7          236          151          65                  |
 |                   8          236          151          65                  |
 |                   9          236          147          65                  |
 +----------------------------------------------------------------------------+

                   Unitarised projection of Wannier functions                  
                   ------------------------------------------                  
   A_mn = <psi_m|g_n> --> S = A.A^+ --> U = S^-1/2.A
   In dis_project... done
   Using an inner window (linner = T)
   In dis_proj_froz...
 K-point   1 ndimwin: 236 we want the 22 leading eigenvector(s) of QPQ
  lambda(  1)= -0.000000000000
  lambda(  2)= -0.000000000000
  lambda(  3)= -0.000000000000
  lambda(  4)= -0.000000000000
  lambda(  5)= -0.000000000000
  lambda(  6)= -0.000000000000
  lambda(  7)= -0.000000000000
  lambda(  8)= -0.000000000000
  lambda(  9)= -0.000000000000
  lambda( 10)= -0.000000000000
  lambda( 11)= -0.000000000000
  lambda( 12)= -0.000000000000
  lambda( 13)= -0.000000000000
  lambda( 14)= -0.000000000000
  lambda( 15)= -0.000000000000
  lambda( 16)= -0.000000000000
  lambda( 17)= -0.000000000000
  lambda( 18)= -0.000000000000
  lambda( 19)= -0.000000000000
  lambda( 20)= -0.000000000000
  lambda( 21)= -0.000000000000
  lambda( 22)= -0.000000000000
  lambda( 23)= -0.000000000000
  lambda( 24)= -0.000000000000
  lambda( 25)= -0.000000000000
  lambda( 26)= -0.000000000000
  lambda( 27)= -0.000000000000
  lambda( 28)= -0.000000000000
  lambda( 29)= -0.000000000000
  lambda( 30)= -0.000000000000
  lambda( 31)= -0.000000000000
  lambda( 32)= -0.000000000000
  lambda( 33)= -0.000000000000
  lambda( 34)= -0.000000000000
  lambda( 35)= -0.000000000000
  lambda( 36)= -0.000000000000
  lambda( 37)= -0.000000000000
  lambda( 38)= -0.000000000000
  lambda( 39)= -0.000000000000
  lambda( 40)= -0.000000000000
  lambda( 41)= -0.000000000000
  lambda( 42)= -0.000000000000
  lambda( 43)= -0.000000000000
  lambda( 44)= -0.000000000000
  lambda( 45)= -0.000000000000
  lambda( 46)= -0.000000000000
  lambda( 47)= -0.000000000000
  lambda( 48)= -0.000000000000
  lambda( 49)= -0.000000000000
  lambda( 50)= -0.000000000000
  lambda( 51)= -0.000000000000
  lambda( 52)= -0.000000000000
  lambda( 53)= -0.000000000000
  lambda( 54)= -0.000000000000
  lambda( 55)= -0.000000000000
  lambda( 56)= -0.000000000000
  lambda( 57)= -0.000000000000
  lambda( 58)= -0.000000000000
  lambda( 59)= -0.000000000000
  lambda( 60)= -0.000000000000
  lambda( 61)= -0.000000000000
  lambda( 62)= -0.000000000000
  lambda( 63)= -0.000000000000
  lambda( 64)= -0.000000000000
  lambda( 65)= -0.000000000000
  lambda( 66)= -0.000000000000
  lambda( 67)= -0.000000000000
  lambda( 68)= -0.000000000000
  lambda( 69)= -0.000000000000
  lambda( 70)= -0.000000000000
  lambda( 71)= -0.000000000000
  lambda( 72)= -0.000000000000
  lambda( 73)= -0.000000000000
  lambda( 74)= -0.000000000000
  lambda( 75)= -0.000000000000
  lambda( 76)= -0.000000000000
  lambda( 77)= -0.000000000000
  lambda( 78)= -0.000000000000
  lambda( 79)=  0.000000000000
  lambda( 80)=  0.000000000000
  lambda( 81)=  0.000000000000
  lambda( 82)=  0.000000000000
  lambda( 83)=  0.000000000000
  lambda( 84)=  0.000000000000
  lambda( 85)=  0.000000000000
  lambda( 86)=  0.000000000000
  lambda( 87)=  0.000000000000
  lambda( 88)=  0.000000000000
  lambda( 89)=  0.000000000000
  lambda( 90)=  0.000000000000
  lambda( 91)=  0.000000000000
  lambda( 92)=  0.000000000000
  lambda( 93)=  0.000000000000
  lambda( 94)=  0.000000000000
  lambda( 95)=  0.000000000000
  lambda( 96)=  0.000000000000
  lambda( 97)=  0.000000000000
  lambda( 98)=  0.000000000000
  lambda( 99)=  0.000000000000
  lambda(100)=  0.000000000000
  lambda(101)=  0.000000000000
  lambda(102)=  0.000000000000
  lambda(103)=  0.000000000000
  lambda(104)=  0.000000000000
  lambda(105)=  0.000000000000
  lambda(106)=  0.000000000000
  lambda(107)=  0.000000000000
  lambda(108)=  0.000000000000
  lambda(109)=  0.000000000000
  lambda(110)=  0.000000000000
  lambda(111)=  0.000000000000
  lambda(112)=  0.000000000000
  lambda(113)=  0.000000000000
  lambda(114)=  0.000000000000
  lambda(115)=  0.000000000000
  lambda(116)=  0.000000000000
  lambda(117)=  0.000000000000
  lambda(118)=  0.000000000000
  lambda(119)=  0.000000000000
  lambda(120)=  0.000000000000
  lambda(121)=  0.000000000000
  lambda(122)=  0.000000000000
  lambda(123)=  0.000000000000
  lambda(124)=  0.000000000000
  lambda(125)=  0.000000000000
  lambda(126)=  0.000000000000
  lambda(127)=  0.000000000000
  lambda(128)=  0.000000000000
  lambda(129)=  0.000000000000
  lambda(130)=  0.000000000000
  lambda(131)=  0.000000000000
  lambda(132)=  0.000000000000
  lambda(133)=  0.000000000000
  lambda(134)=  0.000000000000
  lambda(135)=  0.000000000000
  lambda(136)=  0.000000000000
  lambda(137)=  0.000000000000
  lambda(138)=  0.000000000000
  lambda(139)=  0.000000000000
  lambda(140)=  0.000000000000
  lambda(141)=  0.000000000000
  lambda(142)=  0.000000000000
  lambda(143)=  0.000000000000
  lambda(144)=  0.000000000000
  lambda(145)=  0.000000000000
  lambda(146)=  0.000000000000
  lambda(147)=  0.000000000000
  lambda(148)=  0.000000000000
  lambda(149)=  0.000000000000
  lambda(150)=  0.000000000000
  lambda(151)=  0.000000000000
  lambda(152)=  0.000000000000
  lambda(153)=  0.000000000000
  lambda(154)=  0.000000000000
  lambda(155)=  0.000000000000
  lambda(156)=  0.000000000002
  lambda(157)=  0.000000000063
  lambda(158)=  0.000000000291
  lambda(159)=  0.000000004619
  lambda(160)=  0.000781426180
  lambda(161)=  0.000781505924
  lambda(162)=  0.000781546095
  lambda(163)=  0.000781690807
  lambda(164)=  0.000781728165
  lambda(165)=  0.000781802405
  lambda(166)=  0.015956779278
  lambda(167)=  0.015956823827
  lambda(168)=  0.015957217751
  lambda(169)=  0.015957320826
  lambda(170)=  0.015957514353
  lambda(171)=  0.015957572476
  lambda(172)=  0.019823626981
  lambda(173)=  0.031144879988
  lambda(174)=  0.031180725096
  lambda(175)=  0.031180902513
  lambda(176)=  0.039608268496
  lambda(177)=  0.039608518240
  lambda(178)=  0.039609478889
  lambda(179)=  0.039609591927
  lambda(180)=  0.039612570932
  lambda(181)=  0.039612742092
  lambda(182)=  0.043267973124
  lambda(183)=  0.059350411779
  lambda(184)=  0.059364703131
  lambda(185)=  0.059364781613
  lambda(186)=  0.079090323649
  lambda(187)=  0.079103825512
  lambda(188)=  0.079103884498
  lambda(189)=  0.089609407480
  lambda(190)=  0.089609411409
  lambda(191)=  0.089617706619
  lambda(192)=  0.089617724486
  lambda(193)=  0.089635213732
  lambda(194)=  0.089635238419
  lambda(195)=  0.091606015508
  lambda(196)=  0.091609129483
  lambda(197)=  0.108924845055
  lambda(198)=  0.108925448437
  lambda(199)=  0.108925737176
  lambda(200)=  0.108925898649
  lambda(201)=  0.121198684559
  lambda(202)=  0.121199083828
  lambda(203)=  0.121203584538
  lambda(204)=  0.121204306918
  lambda(205)=  0.121206285627
  lambda(206)=  0.121206957357
  lambda(207)=  0.140767567083
  lambda(208)=  0.140775917774
  lambda(209)=  0.150586472943
  lambda(210)=  0.150586561289
  lambda(211)=  0.150586898689
  lambda(212)=  0.150587017820
  lambda(213)=  0.150593147196
  lambda(214)=  0.150593253746
  lambda(215)=  1.000000000000
  lambda(216)=  1.000000000000
  lambda(217)=  1.000000000000
  lambda(218)=  1.000000000000
  lambda(219)=  1.000000000000
  lambda(220)=  1.000000000000
  lambda(221)=  1.000000000000
  lambda(222)=  1.000000000000
  lambda(223)=  1.000000000000
  lambda(224)=  1.000000000000
  lambda(225)=  1.000000000000
  lambda(226)=  1.000000000000
  lambda(227)=  1.000000000000
  lambda(228)=  1.000000000000
  lambda(229)=  1.000000000000
  lambda(230)=  1.000000000000
  lambda(231)=  1.000000000000
  lambda(232)=  1.000000000000
  lambda(233)=  1.000000000000
  lambda(234)=  1.000000000000
  lambda(235)=  1.000000000000
  lambda(236)=  1.000000000000

 K-point   2 ndimwin: 236 we want the 25 leading eigenvector(s) of QPQ
  lambda(  1)= -0.000000000000
  lambda(  2)= -0.000000000000
  lambda(  3)= -0.000000000000
  lambda(  4)= -0.000000000000
  lambda(  5)= -0.000000000000
  lambda(  6)= -0.000000000000
  lambda(  7)= -0.000000000000
  lambda(  8)= -0.000000000000
  lambda(  9)= -0.000000000000
  lambda( 10)= -0.000000000000
  lambda( 11)= -0.000000000000
  lambda( 12)= -0.000000000000
  lambda( 13)= -0.000000000000
  lambda( 14)= -0.000000000000
  lambda( 15)= -0.000000000000
  lambda( 16)= -0.000000000000
  lambda( 17)= -0.000000000000
  lambda( 18)= -0.000000000000
  lambda( 19)= -0.000000000000
  lambda( 20)= -0.000000000000
  lambda( 21)= -0.000000000000
  lambda( 22)= -0.000000000000
  lambda( 23)= -0.000000000000
  lambda( 24)= -0.000000000000
  lambda( 25)= -0.000000000000
  lambda( 26)= -0.000000000000
  lambda( 27)= -0.000000000000
  lambda( 28)= -0.000000000000
  lambda( 29)= -0.000000000000
  lambda( 30)= -0.000000000000
  lambda( 31)= -0.000000000000
  lambda( 32)= -0.000000000000
  lambda( 33)= -0.000000000000
  lambda( 34)= -0.000000000000
  lambda( 35)= -0.000000000000
  lambda( 36)= -0.000000000000
  lambda( 37)= -0.000000000000
  lambda( 38)= -0.000000000000
  lambda( 39)= -0.000000000000
  lambda( 40)= -0.000000000000
  lambda( 41)= -0.000000000000
  lambda( 42)= -0.000000000000
  lambda( 43)= -0.000000000000
  lambda( 44)= -0.000000000000
  lambda( 45)= -0.000000000000
  lambda( 46)= -0.000000000000
  lambda( 47)= -0.000000000000
  lambda( 48)= -0.000000000000
  lambda( 49)= -0.000000000000
  lambda( 50)= -0.000000000000
  lambda( 51)= -0.000000000000
  lambda( 52)= -0.000000000000
  lambda( 53)= -0.000000000000
  lambda( 54)= -0.000000000000
  lambda( 55)= -0.000000000000
  lambda( 56)= -0.000000000000
  lambda( 57)= -0.000000000000
  lambda( 58)= -0.000000000000
  lambda( 59)= -0.000000000000
  lambda( 60)= -0.000000000000
  lambda( 61)= -0.000000000000
  lambda( 62)= -0.000000000000
  lambda( 63)= -0.000000000000
  lambda( 64)= -0.000000000000
  lambda( 65)= -0.000000000000
  lambda( 66)= -0.000000000000
  lambda( 67)= -0.000000000000
  lambda( 68)= -0.000000000000
  lambda( 69)= -0.000000000000
  lambda( 70)= -0.000000000000
  lambda( 71)= -0.000000000000
  lambda( 72)= -0.000000000000
  lambda( 73)= -0.000000000000
  lambda( 74)= -0.000000000000
  lambda( 75)= -0.000000000000
  lambda( 76)= -0.000000000000
  lambda( 77)= -0.000000000000
  lambda( 78)= -0.000000000000
  lambda( 79)=  0.000000000000
  lambda( 80)=  0.000000000000
  lambda( 81)=  0.000000000000
  lambda( 82)=  0.000000000000
  lambda( 83)=  0.000000000000
  lambda( 84)=  0.000000000000
  lambda( 85)=  0.000000000000
  lambda( 86)=  0.000000000000
  lambda( 87)=  0.000000000000
  lambda( 88)=  0.000000000000
  lambda( 89)=  0.000000000000
  lambda( 90)=  0.000000000000
  lambda( 91)=  0.000000000000
  lambda( 92)=  0.000000000000
  lambda( 93)=  0.000000000000
  lambda( 94)=  0.000000000000
  lambda( 95)=  0.000000000000
  lambda( 96)=  0.000000000000
  lambda( 97)=  0.000000000000
  lambda( 98)=  0.000000000000
  lambda( 99)=  0.000000000000
  lambda(100)=  0.000000000000
  lambda(101)=  0.000000000000
  lambda(102)=  0.000000000000
  lambda(103)=  0.000000000000
  lambda(104)=  0.000000000000
  lambda(105)=  0.000000000000
  lambda(106)=  0.000000000000
  lambda(107)=  0.000000000000
  lambda(108)=  0.000000000000
  lambda(109)=  0.000000000000
  lambda(110)=  0.000000000000
  lambda(111)=  0.000000000000
  lambda(112)=  0.000000000000
  lambda(113)=  0.000000000000
  lambda(114)=  0.000000000000
  lambda(115)=  0.000000000000
  lambda(116)=  0.000000000000
  lambda(117)=  0.000000000000
  lambda(118)=  0.000000000000
  lambda(119)=  0.000000000000
  lambda(120)=  0.000000000000
  lambda(121)=  0.000000000000
  lambda(122)=  0.000000000000
  lambda(123)=  0.000000000000
  lambda(124)=  0.000000000000
  lambda(125)=  0.000000000000
  lambda(126)=  0.000000000000
  lambda(127)=  0.000000000000
  lambda(128)=  0.000000000000
  lambda(129)=  0.000000000000
  lambda(130)=  0.000000000000
  lambda(131)=  0.000000000000
  lambda(132)=  0.000000000000
  lambda(133)=  0.000000000000
  lambda(134)=  0.000000000000
  lambda(135)=  0.000000000000
  lambda(136)=  0.000000000000
  lambda(137)=  0.000000000000
  lambda(138)=  0.000000000000
  lambda(139)=  0.000000000000
  lambda(140)=  0.000000000000
  lambda(141)=  0.000000000000
  lambda(142)=  0.000000000000
  lambda(143)=  0.000000000000
  lambda(144)=  0.000000000000
  lambda(145)=  0.000000000000
  lambda(146)=  0.000000000000
  lambda(147)=  0.000000000000
  lambda(148)=  0.000000000000
  lambda(149)=  0.000000000000
  lambda(150)=  0.000000000000
  lambda(151)=  0.000000000000
  lambda(152)=  0.000000000005
  lambda(153)=  0.000000000011
  lambda(154)=  0.000009292426
  lambda(155)=  0.000024808420
  lambda(156)=  0.000474386361
  lambda(157)=  0.000474389017
  lambda(158)=  0.005979628759
  lambda(159)=  0.007173403497
  lambda(160)=  0.013970976957
  lambda(161)=  0.013971308717
  lambda(162)=  0.016199625211
  lambda(163)=  0.018155306694
  lambda(164)=  0.018155325696
  lambda(165)=  0.020224693119
  lambda(166)=  0.026595862167
  lambda(167)=  0.030621185167
  lambda(168)=  0.030623421071
  lambda(169)=  0.042582792619
  lambda(170)=  0.042615005698
  lambda(171)=  0.044765130637
  lambda(172)=  0.045632056713
  lambda(173)=  0.045712324005
  lambda(174)=  0.048141567030
  lambda(175)=  0.048751094702
  lambda(176)=  0.048752279905
  lambda(177)=  0.057462901609
  lambda(178)=  0.058609744461
  lambda(179)=  0.058622166202
  lambda(180)=  0.062733874176
  lambda(181)=  0.062756671048
  lambda(182)=  0.062973715468
  lambda(183)=  0.062979357723
  lambda(184)=  0.068979395065
  lambda(185)=  0.080564384673
  lambda(186)=  0.080566931973
  lambda(187)=  0.092168148076
  lambda(188)=  0.092344589456
  lambda(189)=  0.092359969137
  lambda(190)=  0.097750675311
  lambda(191)=  0.097752148941
  lambda(192)=  0.100443983993
  lambda(193)=  0.102897261057
  lambda(194)=  0.112561064512
  lambda(195)=  0.112561576634
  lambda(196)=  0.117163675763
  lambda(197)=  0.117641488439
  lambda(198)=  0.117644645556
  lambda(199)=  0.118736951769
  lambda(200)=  0.118740067850
  lambda(201)=  0.119103433790
  lambda(202)=  0.119105508188
  lambda(203)=  0.119475958584
  lambda(204)=  0.119489496711
  lambda(205)=  0.122928859241
  lambda(206)=  0.122937404498
  lambda(207)=  0.126171453343
  lambda(208)=  0.126173961126
  lambda(209)=  0.149420262606
  lambda(210)=  0.149420413925
  lambda(211)=  0.175009465021
  lambda(212)=  1.000000000000
  lambda(213)=  1.000000000000
  lambda(214)=  1.000000000000
  lambda(215)=  1.000000000000
  lambda(216)=  1.000000000000
  lambda(217)=  1.000000000000
  lambda(218)=  1.000000000000
  lambda(219)=  1.000000000000
  lambda(220)=  1.000000000000
  lambda(221)=  1.000000000000
  lambda(222)=  1.000000000000
  lambda(223)=  1.000000000000
  lambda(224)=  1.000000000000
  lambda(225)=  1.000000000000
  lambda(226)=  1.000000000000
  lambda(227)=  1.000000000000
  lambda(228)=  1.000000000000
  lambda(229)=  1.000000000000
  lambda(230)=  1.000000000000
  lambda(231)=  1.000000000000
  lambda(232)=  1.000000000000
  lambda(233)=  1.000000000000
  lambda(234)=  1.000000000000
  lambda(235)=  1.000000000000
  lambda(236)=  1.000000000000

 K-point   3 ndimwin: 236 we want the 25 leading eigenvector(s) of QPQ
  lambda(  1)= -0.000000000000
  lambda(  2)= -0.000000000000
  lambda(  3)= -0.000000000000
  lambda(  4)= -0.000000000000
  lambda(  5)= -0.000000000000
  lambda(  6)= -0.000000000000
  lambda(  7)= -0.000000000000
  lambda(  8)= -0.000000000000
  lambda(  9)= -0.000000000000
  lambda( 10)= -0.000000000000
  lambda( 11)= -0.000000000000
  lambda( 12)= -0.000000000000
  lambda( 13)= -0.000000000000
  lambda( 14)= -0.000000000000
  lambda( 15)= -0.000000000000
  lambda( 16)= -0.000000000000
  lambda( 17)= -0.000000000000
  lambda( 18)= -0.000000000000
  lambda( 19)= -0.000000000000
  lambda( 20)= -0.000000000000
  lambda( 21)= -0.000000000000
  lambda( 22)= -0.000000000000
  lambda( 23)= -0.000000000000
  lambda( 24)= -0.000000000000
  lambda( 25)= -0.000000000000
  lambda( 26)= -0.000000000000
  lambda( 27)= -0.000000000000
  lambda( 28)= -0.000000000000
  lambda( 29)= -0.000000000000
  lambda( 30)= -0.000000000000
  lambda( 31)= -0.000000000000
  lambda( 32)= -0.000000000000
  lambda( 33)= -0.000000000000
  lambda( 34)= -0.000000000000
  lambda( 35)= -0.000000000000
  lambda( 36)= -0.000000000000
  lambda( 37)= -0.000000000000
  lambda( 38)= -0.000000000000
  lambda( 39)= -0.000000000000
  lambda( 40)= -0.000000000000
  lambda( 41)= -0.000000000000
  lambda( 42)= -0.000000000000
  lambda( 43)= -0.000000000000
  lambda( 44)= -0.000000000000
  lambda( 45)= -0.000000000000
  lambda( 46)= -0.000000000000
  lambda( 47)= -0.000000000000
  lambda( 48)= -0.000000000000
  lambda( 49)= -0.000000000000
  lambda( 50)= -0.000000000000
  lambda( 51)= -0.000000000000
  lambda( 52)= -0.000000000000
  lambda( 53)= -0.000000000000
  lambda( 54)= -0.000000000000
  lambda( 55)= -0.000000000000
  lambda( 56)= -0.000000000000
  lambda( 57)= -0.000000000000
  lambda( 58)= -0.000000000000
  lambda( 59)= -0.000000000000
  lambda( 60)= -0.000000000000
  lambda( 61)= -0.000000000000
  lambda( 62)= -0.000000000000
  lambda( 63)= -0.000000000000
  lambda( 64)= -0.000000000000
  lambda( 65)= -0.000000000000
  lambda( 66)= -0.000000000000
  lambda( 67)= -0.000000000000
  lambda( 68)= -0.000000000000
  lambda( 69)= -0.000000000000
  lambda( 70)= -0.000000000000
  lambda( 71)= -0.000000000000
  lambda( 72)= -0.000000000000
  lambda( 73)= -0.000000000000
  lambda( 74)= -0.000000000000
  lambda( 75)= -0.000000000000
  lambda( 76)=  0.000000000000
  lambda( 77)=  0.000000000000
  lambda( 78)=  0.000000000000
  lambda( 79)=  0.000000000000
  lambda( 80)=  0.000000000000
  lambda( 81)=  0.000000000000
  lambda( 82)=  0.000000000000
  lambda( 83)=  0.000000000000
  lambda( 84)=  0.000000000000
  lambda( 85)=  0.000000000000
  lambda( 86)=  0.000000000000
  lambda( 87)=  0.000000000000
  lambda( 88)=  0.000000000000
  lambda( 89)=  0.000000000000
  lambda( 90)=  0.000000000000
  lambda( 91)=  0.000000000000
  lambda( 92)=  0.000000000000
  lambda( 93)=  0.000000000000
  lambda( 94)=  0.000000000000
  lambda( 95)=  0.000000000000
  lambda( 96)=  0.000000000000
  lambda( 97)=  0.000000000000
  lambda( 98)=  0.000000000000
  lambda( 99)=  0.000000000000
  lambda(100)=  0.000000000000
  lambda(101)=  0.000000000000
  lambda(102)=  0.000000000000
  lambda(103)=  0.000000000000
  lambda(104)=  0.000000000000
  lambda(105)=  0.000000000000
  lambda(106)=  0.000000000000
  lambda(107)=  0.000000000000
  lambda(108)=  0.000000000000
  lambda(109)=  0.000000000000
  lambda(110)=  0.000000000000
  lambda(111)=  0.000000000000
  lambda(112)=  0.000000000000
  lambda(113)=  0.000000000000
  lambda(114)=  0.000000000000
  lambda(115)=  0.000000000000
  lambda(116)=  0.000000000000
  lambda(117)=  0.000000000000
  lambda(118)=  0.000000000000
  lambda(119)=  0.000000000000
  lambda(120)=  0.000000000000
  lambda(121)=  0.000000000000
  lambda(122)=  0.000000000000
  lambda(123)=  0.000000000000
  lambda(124)=  0.000000000000
  lambda(125)=  0.000000000000
  lambda(126)=  0.000000000000
  lambda(127)=  0.000000000000
  lambda(128)=  0.000000000000
  lambda(129)=  0.000000000000
  lambda(130)=  0.000000000000
  lambda(131)=  0.000000000000
  lambda(132)=  0.000000000000
  lambda(133)=  0.000000000000
  lambda(134)=  0.000000000000
  lambda(135)=  0.000000000000
  lambda(136)=  0.000000000000
  lambda(137)=  0.000000000000
  lambda(138)=  0.000000000000
  lambda(139)=  0.000000000000
  lambda(140)=  0.000000000000
  lambda(141)=  0.000000000000
  lambda(142)=  0.000000000000
  lambda(143)=  0.000000000000
  lambda(144)=  0.000000000000
  lambda(145)=  0.000000000000
  lambda(146)=  0.000000000000
  lambda(147)=  0.000000000000
  lambda(148)=  0.000000000000
  lambda(149)=  0.000000000000
  lambda(150)=  0.000000000000
  lambda(151)=  0.000000000000
  lambda(152)=  0.000000000005
  lambda(153)=  0.000000000021
  lambda(154)=  0.000009292550
  lambda(155)=  0.000024807895
  lambda(156)=  0.000474384279
  lambda(157)=  0.000474388170
  lambda(158)=  0.005979628510
  lambda(159)=  0.007173405316
  lambda(160)=  0.013970978363
  lambda(161)=  0.013971309184
  lambda(162)=  0.016199630597
  lambda(163)=  0.018155276198
  lambda(164)=  0.018155321483
  lambda(165)=  0.020224693382
  lambda(166)=  0.026595853824
  lambda(167)=  0.030621189674
  lambda(168)=  0.030623435187
  lambda(169)=  0.042582791773
  lambda(170)=  0.042615005379
  lambda(171)=  0.044765131150
  lambda(172)=  0.045632062766
  lambda(173)=  0.045712320825
  lambda(174)=  0.048141511727
  lambda(175)=  0.048751098869
  lambda(176)=  0.048752289465
  lambda(177)=  0.057462901541
  lambda(178)=  0.058609744503
  lambda(179)=  0.058622166075
  lambda(180)=  0.062733859393
  lambda(181)=  0.062756677145
  lambda(182)=  0.062973715474
  lambda(183)=  0.062979357795
  lambda(184)=  0.068979393589
  lambda(185)=  0.080564380984
  lambda(186)=  0.080566924507
  lambda(187)=  0.092168148036
  lambda(188)=  0.092344589790
  lambda(189)=  0.092359969931
  lambda(190)=  0.097750678313
  lambda(191)=  0.097752147902
  lambda(192)=  0.100443981742
  lambda(193)=  0.102897285112
  lambda(194)=  0.112561064798
  lambda(195)=  0.112561576686
  lambda(196)=  0.117163669257
  lambda(197)=  0.117641489195
  lambda(198)=  0.117644647206
  lambda(199)=  0.118736957926
  lambda(200)=  0.118740077908
  lambda(201)=  0.119103426724
  lambda(202)=  0.119105511819
  lambda(203)=  0.119475951359
  lambda(204)=  0.119489501092
  lambda(205)=  0.122928860312
  lambda(206)=  0.122937403576
  lambda(207)=  0.126171441438
  lambda(208)=  0.126173960569
  lambda(209)=  0.149420257241
  lambda(210)=  0.149420399254
  lambda(211)=  0.175009464404
  lambda(212)=  1.000000000000
  lambda(213)=  1.000000000000
  lambda(214)=  1.000000000000
  lambda(215)=  1.000000000000
  lambda(216)=  1.000000000000
  lambda(217)=  1.000000000000
  lambda(218)=  1.000000000000
  lambda(219)=  1.000000000000
  lambda(220)=  1.000000000000
  lambda(221)=  1.000000000000
  lambda(222)=  1.000000000000
  lambda(223)=  1.000000000000
  lambda(224)=  1.000000000000
  lambda(225)=  1.000000000000
  lambda(226)=  1.000000000000
  lambda(227)=  1.000000000000
  lambda(228)=  1.000000000000
  lambda(229)=  1.000000000000
  lambda(230)=  1.000000000000
  lambda(231)=  1.000000000000
  lambda(232)=  1.000000000000
  lambda(233)=  1.000000000000
  lambda(234)=  1.000000000000
  lambda(235)=  1.000000000000
  lambda(236)=  1.000000000000

 K-point   4 ndimwin: 236 we want the 25 leading eigenvector(s) of QPQ
  lambda(  1)= -0.000000000000
  lambda(  2)= -0.000000000000
  lambda(  3)= -0.000000000000
  lambda(  4)= -0.000000000000
  lambda(  5)= -0.000000000000
  lambda(  6)= -0.000000000000
  lambda(  7)= -0.000000000000
  lambda(  8)= -0.000000000000
  lambda(  9)= -0.000000000000
  lambda( 10)= -0.000000000000
  lambda( 11)= -0.000000000000
  lambda( 12)= -0.000000000000
  lambda( 13)= -0.000000000000
  lambda( 14)= -0.000000000000
  lambda( 15)= -0.000000000000
  lambda( 16)= -0.000000000000
  lambda( 17)= -0.000000000000
  lambda( 18)= -0.000000000000
  lambda( 19)= -0.000000000000
  lambda( 20)= -0.000000000000
  lambda( 21)= -0.000000000000
  lambda( 22)= -0.000000000000
  lambda( 23)= -0.000000000000
  lambda( 24)= -0.000000000000
  lambda( 25)= -0.000000000000
  lambda( 26)= -0.000000000000
  lambda( 27)= -0.000000000000
  lambda( 28)= -0.000000000000
  lambda( 29)= -0.000000000000
  lambda( 30)= -0.000000000000
  lambda( 31)= -0.000000000000
  lambda( 32)= -0.000000000000
  lambda( 33)= -0.000000000000
  lambda( 34)= -0.000000000000
  lambda( 35)= -0.000000000000
  lambda( 36)= -0.000000000000
  lambda( 37)= -0.000000000000
  lambda( 38)= -0.000000000000
  lambda( 39)= -0.000000000000
  lambda( 40)= -0.000000000000
  lambda( 41)= -0.000000000000
  lambda( 42)= -0.000000000000
  lambda( 43)= -0.000000000000
  lambda( 44)= -0.000000000000
  lambda( 45)= -0.000000000000
  lambda( 46)= -0.000000000000
  lambda( 47)= -0.000000000000
  lambda( 48)= -0.000000000000
  lambda( 49)= -0.000000000000
  lambda( 50)= -0.000000000000
  lambda( 51)= -0.000000000000
  lambda( 52)= -0.000000000000
  lambda( 53)= -0.000000000000
  lambda( 54)= -0.000000000000
  lambda( 55)= -0.000000000000
  lambda( 56)= -0.000000000000
  lambda( 57)= -0.000000000000
  lambda( 58)= -0.000000000000
  lambda( 59)= -0.000000000000
  lambda( 60)= -0.000000000000
  lambda( 61)= -0.000000000000
  lambda( 62)= -0.000000000000
  lambda( 63)= -0.000000000000
  lambda( 64)= -0.000000000000
  lambda( 65)= -0.000000000000
  lambda( 66)= -0.000000000000
  lambda( 67)= -0.000000000000
  lambda( 68)= -0.000000000000
  lambda( 69)= -0.000000000000
  lambda( 70)= -0.000000000000
  lambda( 71)= -0.000000000000
  lambda( 72)= -0.000000000000
  lambda( 73)= -0.000000000000
  lambda( 74)= -0.000000000000
  lambda( 75)= -0.000000000000
  lambda( 76)=  0.000000000000
  lambda( 77)=  0.000000000000
  lambda( 78)=  0.000000000000
  lambda( 79)=  0.000000000000
  lambda( 80)=  0.000000000000
  lambda( 81)=  0.000000000000
  lambda( 82)=  0.000000000000
  lambda( 83)=  0.000000000000
  lambda( 84)=  0.000000000000
  lambda( 85)=  0.000000000000
  lambda( 86)=  0.000000000000
  lambda( 87)=  0.000000000000
  lambda( 88)=  0.000000000000
  lambda( 89)=  0.000000000000
  lambda( 90)=  0.000000000000
  lambda( 91)=  0.000000000000
  lambda( 92)=  0.000000000000
  lambda( 93)=  0.000000000000
  lambda( 94)=  0.000000000000
  lambda( 95)=  0.000000000000
  lambda( 96)=  0.000000000000
  lambda( 97)=  0.000000000000
  lambda( 98)=  0.000000000000
  lambda( 99)=  0.000000000000
  lambda(100)=  0.000000000000
  lambda(101)=  0.000000000000
  lambda(102)=  0.000000000000
  lambda(103)=  0.000000000000
  lambda(104)=  0.000000000000
  lambda(105)=  0.000000000000
  lambda(106)=  0.000000000000
  lambda(107)=  0.000000000000
  lambda(108)=  0.000000000000
  lambda(109)=  0.000000000000
  lambda(110)=  0.000000000000
  lambda(111)=  0.000000000000
  lambda(112)=  0.000000000000
  lambda(113)=  0.000000000000
  lambda(114)=  0.000000000000
  lambda(115)=  0.000000000000
  lambda(116)=  0.000000000000
  lambda(117)=  0.000000000000
  lambda(118)=  0.000000000000
  lambda(119)=  0.000000000000
  lambda(120)=  0.000000000000
  lambda(121)=  0.000000000000
  lambda(122)=  0.000000000000
  lambda(123)=  0.000000000000
  lambda(124)=  0.000000000000
  lambda(125)=  0.000000000000
  lambda(126)=  0.000000000000
  lambda(127)=  0.000000000000
  lambda(128)=  0.000000000000
  lambda(129)=  0.000000000000
  lambda(130)=  0.000000000000
  lambda(131)=  0.000000000000
  lambda(132)=  0.000000000000
  lambda(133)=  0.000000000000
  lambda(134)=  0.000000000000
  lambda(135)=  0.000000000000
  lambda(136)=  0.000000000000
  lambda(137)=  0.000000000000
  lambda(138)=  0.000000000000
  lambda(139)=  0.000000000000
  lambda(140)=  0.000000000000
  lambda(141)=  0.000000000000
  lambda(142)=  0.000000000000
  lambda(143)=  0.000000000000
  lambda(144)=  0.000000000000
  lambda(145)=  0.000000000000
  lambda(146)=  0.000000000000
  lambda(147)=  0.000000000000
  lambda(148)=  0.000000000000
  lambda(149)=  0.000000000000
  lambda(150)=  0.000000000000
  lambda(151)=  0.000000000000
  lambda(152)=  0.000000000005
  lambda(153)=  0.000000000013
  lambda(154)=  0.000009292512
  lambda(155)=  0.000024808163
  lambda(156)=  0.000474384394
  lambda(157)=  0.000474389754
  lambda(158)=  0.005979628044
  lambda(159)=  0.007173404496
  lambda(160)=  0.013970986068
  lambda(161)=  0.013971308454
  lambda(162)=  0.016199625967
  lambda(163)=  0.018155283472
  lambda(164)=  0.018155310453
  lambda(165)=  0.020224698403
  lambda(166)=  0.026595854306
  lambda(167)=  0.030621201377
  lambda(168)=  0.030623440973
  lambda(169)=  0.042582793642
  lambda(170)=  0.042615006628
  lambda(171)=  0.044765131370
  lambda(172)=  0.045632057123
  lambda(173)=  0.045712323740
  lambda(174)=  0.048141527084
  lambda(175)=  0.048751092946
  lambda(176)=  0.048752280493
  lambda(177)=  0.057462901268
  lambda(178)=  0.058609746809
  lambda(179)=  0.058622167767
  lambda(180)=  0.062733877415
  lambda(181)=  0.062756676277
  lambda(182)=  0.062973716400
  lambda(183)=  0.062979358473
  lambda(184)=  0.068979392138
  lambda(185)=  0.080564397195
  lambda(186)=  0.080566904363
  lambda(187)=  0.092168148631
  lambda(188)=  0.092344590543
  lambda(189)=  0.092359969581
  lambda(190)=  0.097750675219
  lambda(191)=  0.097752147055
  lambda(192)=  0.100443988159
  lambda(193)=  0.102897265995
  lambda(194)=  0.112561063906
  lambda(195)=  0.112561575985
  lambda(196)=  0.117163678006
  lambda(197)=  0.117641494273
  lambda(198)=  0.117644660588
  lambda(199)=  0.118736962206
  lambda(200)=  0.118740073150
  lambda(201)=  0.119103422143
  lambda(202)=  0.119105495029
  lambda(203)=  0.119475957150
  lambda(204)=  0.119489496715
  lambda(205)=  0.122928859565
  lambda(206)=  0.122937405337
  lambda(207)=  0.126171453986
  lambda(208)=  0.126173953809
  lambda(209)=  0.149420254948
  lambda(210)=  0.149420406013
  lambda(211)=  0.175009461672
  lambda(212)=  1.000000000000
  lambda(213)=  1.000000000000
  lambda(214)=  1.000000000000
  lambda(215)=  1.000000000000
  lambda(216)=  1.000000000000
  lambda(217)=  1.000000000000
  lambda(218)=  1.000000000000
  lambda(219)=  1.000000000000
  lambda(220)=  1.000000000000
  lambda(221)=  1.000000000000
  lambda(222)=  1.000000000000
  lambda(223)=  1.000000000000
  lambda(224)=  1.000000000000
  lambda(225)=  1.000000000000
  lambda(226)=  1.000000000000
  lambda(227)=  1.000000000000
  lambda(228)=  1.000000000000
  lambda(229)=  1.000000000000
  lambda(230)=  1.000000000000
  lambda(231)=  1.000000000000
  lambda(232)=  1.000000000000
  lambda(233)=  1.000000000000
  lambda(234)=  1.000000000000
  lambda(235)=  1.000000000000
  lambda(236)=  1.000000000000

 K-point   5 ndimwin: 236 we want the 29 leading eigenvector(s) of QPQ
  lambda(  1)= -0.000000000000
  lambda(  2)= -0.000000000000
  lambda(  3)= -0.000000000000
  lambda(  4)= -0.000000000000
  lambda(  5)= -0.000000000000
  lambda(  6)= -0.000000000000
  lambda(  7)= -0.000000000000
  lambda(  8)= -0.000000000000
  lambda(  9)= -0.000000000000
  lambda( 10)= -0.000000000000
  lambda( 11)= -0.000000000000
  lambda( 12)= -0.000000000000
  lambda( 13)= -0.000000000000
  lambda( 14)= -0.000000000000
  lambda( 15)= -0.000000000000
  lambda( 16)= -0.000000000000
  lambda( 17)= -0.000000000000
  lambda( 18)= -0.000000000000
  lambda( 19)= -0.000000000000
  lambda( 20)= -0.000000000000
  lambda( 21)= -0.000000000000
  lambda( 22)= -0.000000000000
  lambda( 23)= -0.000000000000
  lambda( 24)= -0.000000000000
  lambda( 25)= -0.000000000000
  lambda( 26)= -0.000000000000
  lambda( 27)= -0.000000000000
  lambda( 28)= -0.000000000000
  lambda( 29)= -0.000000000000
  lambda( 30)= -0.000000000000
  lambda( 31)= -0.000000000000
  lambda( 32)= -0.000000000000
  lambda( 33)= -0.000000000000
  lambda( 34)= -0.000000000000
  lambda( 35)= -0.000000000000
  lambda( 36)= -0.000000000000
  lambda( 37)= -0.000000000000
  lambda( 38)= -0.000000000000
  lambda( 39)= -0.000000000000
  lambda( 40)= -0.000000000000
  lambda( 41)= -0.000000000000
  lambda( 42)= -0.000000000000
  lambda( 43)= -0.000000000000
  lambda( 44)= -0.000000000000
  lambda( 45)= -0.000000000000
  lambda( 46)= -0.000000000000
  lambda( 47)= -0.000000000000
  lambda( 48)= -0.000000000000
  lambda( 49)= -0.000000000000
  lambda( 50)= -0.000000000000
  lambda( 51)= -0.000000000000
  lambda( 52)= -0.000000000000
  lambda( 53)= -0.000000000000
  lambda( 54)= -0.000000000000
  lambda( 55)= -0.000000000000
  lambda( 56)= -0.000000000000
  lambda( 57)= -0.000000000000
  lambda( 58)= -0.000000000000
  lambda( 59)= -0.000000000000
  lambda( 60)= -0.000000000000
  lambda( 61)= -0.000000000000
  lambda( 62)= -0.000000000000
  lambda( 63)= -0.000000000000
  lambda( 64)= -0.000000000000
  lambda( 65)= -0.000000000000
  lambda( 66)= -0.000000000000
  lambda( 67)= -0.000000000000
  lambda( 68)= -0.000000000000
  lambda( 69)= -0.000000000000
  lambda( 70)= -0.000000000000
  lambda( 71)= -0.000000000000
  lambda( 72)= -0.000000000000
  lambda( 73)= -0.000000000000
  lambda( 74)= -0.000000000000
  lambda( 75)= -0.000000000000
  lambda( 76)=  0.000000000000
  lambda( 77)=  0.000000000000
  lambda( 78)=  0.000000000000
  lambda( 79)=  0.000000000000
  lambda( 80)=  0.000000000000
  lambda( 81)=  0.000000000000
  lambda( 82)=  0.000000000000
  lambda( 83)=  0.000000000000
  lambda( 84)=  0.000000000000
  lambda( 85)=  0.000000000000
  lambda( 86)=  0.000000000000
  lambda( 87)=  0.000000000000
  lambda( 88)=  0.000000000000
  lambda( 89)=  0.000000000000
  lambda( 90)=  0.000000000000
  lambda( 91)=  0.000000000000
  lambda( 92)=  0.000000000000
  lambda( 93)=  0.000000000000
  lambda( 94)=  0.000000000000
  lambda( 95)=  0.000000000000
  lambda( 96)=  0.000000000000
  lambda( 97)=  0.000000000000
  lambda( 98)=  0.000000000000
  lambda( 99)=  0.000000000000
  lambda(100)=  0.000000000000
  lambda(101)=  0.000000000000
  lambda(102)=  0.000000000000
  lambda(103)=  0.000000000000
  lambda(104)=  0.000000000000
  lambda(105)=  0.000000000000
  lambda(106)=  0.000000000000
  lambda(107)=  0.000000000000
  lambda(108)=  0.000000000000
  lambda(109)=  0.000000000000
  lambda(110)=  0.000000000000
  lambda(111)=  0.000000000000
  lambda(112)=  0.000000000000
  lambda(113)=  0.000000000000
  lambda(114)=  0.000000000000
  lambda(115)=  0.000000000000
  lambda(116)=  0.000000000000
  lambda(117)=  0.000000000000
  lambda(118)=  0.000000000000
  lambda(119)=  0.000000000000
  lambda(120)=  0.000000000000
  lambda(121)=  0.000000000000
  lambda(122)=  0.000000000000
  lambda(123)=  0.000000000000
  lambda(124)=  0.000000000000
  lambda(125)=  0.000000000000
  lambda(126)=  0.000000000000
  lambda(127)=  0.000000000000
  lambda(128)=  0.000000000000
  lambda(129)=  0.000000000000
  lambda(130)=  0.000000000000
  lambda(131)=  0.000000000000
  lambda(132)=  0.000000000000
  lambda(133)=  0.000000000000
  lambda(134)=  0.000000000000
  lambda(135)=  0.000000000000
  lambda(136)=  0.000000000000
  lambda(137)=  0.000000000000
  lambda(138)=  0.000000000000
  lambda(139)=  0.000000000000
  lambda(140)=  0.000000000000
  lambda(141)=  0.000000000000
  lambda(142)=  0.000000000000
  lambda(143)=  0.000000000000
  lambda(144)=  0.000000000000
  lambda(145)=  0.000000000000
  lambda(146)=  0.000000000000
  lambda(147)=  0.000000000000
  lambda(148)=  0.000000231292
  lambda(149)=  0.000000231530
  lambda(150)=  0.000000231785
  lambda(151)=  0.000050672792
  lambda(152)=  0.000050691291
  lambda(153)=  0.000050720404
  lambda(154)=  0.013956062849
  lambda(155)=  0.013956106315
  lambda(156)=  0.013956492679
  lambda(157)=  0.018042827158
  lambda(158)=  0.018042900673
  lambda(159)=  0.018042919759
  lambda(160)=  0.020568408767
  lambda(161)=  0.020569928175
  lambda(162)=  0.020571349978
  lambda(163)=  0.033047281967
  lambda(164)=  0.033048070430
  lambda(165)=  0.033048170324
  lambda(166)=  0.048091813482
  lambda(167)=  0.048094078372
  lambda(168)=  0.048108168034
  lambda(169)=  0.048110242422
  lambda(170)=  0.049266052382
  lambda(171)=  0.049266472358
  lambda(172)=  0.049268059901
  lambda(173)=  0.051593879664
  lambda(174)=  0.051628350436
  lambda(175)=  0.051631443910
  lambda(176)=  0.056728640171
  lambda(177)=  0.058167335849
  lambda(178)=  0.058175835811
  lambda(179)=  0.058177589822
  lambda(180)=  0.063444344836
  lambda(181)=  0.087373488584
  lambda(182)=  0.087376547413
  lambda(183)=  0.087377572838
  lambda(184)=  0.087955554405
  lambda(185)=  0.087962126623
  lambda(186)=  0.095175249795
  lambda(187)=  0.095182550683
  lambda(188)=  0.095188136526
  lambda(189)=  0.098772679987
  lambda(190)=  0.098776835512
  lambda(191)=  0.098780299174
  lambda(192)=  0.106016532559
  lambda(193)=  0.106022033530
  lambda(194)=  0.106027429813
  lambda(195)=  0.106029742612
  lambda(196)=  0.119031940623
  lambda(197)=  0.119032013425
  lambda(198)=  0.119032595081
  lambda(199)=  0.130850955651
  lambda(200)=  0.130851172795
  lambda(201)=  0.130855271851
  lambda(202)=  0.156376783784
  lambda(203)=  0.156377797408
  lambda(204)=  0.156388554251
  lambda(205)=  0.156393128106
  lambda(206)=  0.156402533731
  lambda(207)=  0.156404990075
  lambda(208)=  1.000000000000
  lambda(209)=  1.000000000000
  lambda(210)=  1.000000000000
  lambda(211)=  1.000000000000
  lambda(212)=  1.000000000000
  lambda(213)=  1.000000000000
  lambda(214)=  1.000000000000
  lambda(215)=  1.000000000000
  lambda(216)=  1.000000000000
  lambda(217)=  1.000000000000
  lambda(218)=  1.000000000000
  lambda(219)=  1.000000000000
  lambda(220)=  1.000000000000
  lambda(221)=  1.000000000000
  lambda(222)=  1.000000000000
  lambda(223)=  1.000000000000
  lambda(224)=  1.000000000000
  lambda(225)=  1.000000000000
  lambda(226)=  1.000000000000
  lambda(227)=  1.000000000000
  lambda(228)=  1.000000000000
  lambda(229)=  1.000000000000
  lambda(230)=  1.000000000000
  lambda(231)=  1.000000000000
  lambda(232)=  1.000000000000
  lambda(233)=  1.000000000000
  lambda(234)=  1.000000000000
  lambda(235)=  1.000000000000
  lambda(236)=  1.000000000000

 K-point   6 ndimwin: 236 we want the 25 leading eigenvector(s) of QPQ
  lambda(  1)= -0.000000000000
  lambda(  2)= -0.000000000000
  lambda(  3)= -0.000000000000
[...]
  WF centre and spread   81  (  1.723037,  0.989480, -0.088569 )     2.17442171
  WF centre and spread   82  (  1.722955,  0.976318,  0.040793 )     2.07273683
  WF centre and spread   83  (  1.723031,  1.017937,  0.040660 )     2.07306506
  WF centre and spread   84  (  1.723037,  0.989480,  3.442872 )     2.17442026
  WF centre and spread   85  (  1.722955,  0.976318,  3.313510 )     2.07273554
  WF centre and spread   86  (  1.723030,  1.017937,  3.313643 )     2.07306373
  WF centre and spread   87  (  5.169072,  0.989344, -0.088588 )     2.17415734
  WF centre and spread   88  (  5.168914,  0.976481,  0.040574 )     2.07295492
  WF centre and spread   89  (  5.169116,  1.017754,  0.040494 )     2.07344432
  WF centre and spread   90  (  5.169072,  0.989344,  3.442890 )     2.17415869
  WF centre and spread   91  (  5.168914,  0.976480,  3.313728 )     2.07295654
  WF centre and spread   92  (  5.169116,  1.017754,  3.313808 )     2.07344527
  WF centre and spread   93  (  8.615081,  0.989349, -0.088584 )     2.17415837
  WF centre and spread   94  (  8.615220,  0.976467,  0.040565 )     2.07289228
  WF centre and spread   95  (  8.615068,  1.017761,  0.040461 )     2.07335251
  WF centre and spread   96  (  8.615081,  0.989349,  3.442886 )     2.17415977
  WF centre and spread   97  (  8.615220,  0.976467,  3.313738 )     2.07289389
  WF centre and spread   98  (  8.615069,  1.017761,  3.313841 )     2.07335346
  WF centre and spread   99  ( 12.061095,  0.989474, -0.088558 )     2.17438486
  WF centre and spread  100  ( 12.061184,  0.976308,  0.040785 )     2.07275432
  WF centre and spread  101  ( 12.061167,  1.017923,  0.040661 )     2.07316648
  WF centre and spread  102  ( 12.061096,  0.989474,  3.442861 )     2.17438343
  WF centre and spread  103  ( 12.061184,  0.976308,  3.313518 )     2.07275302
  WF centre and spread  104  ( 12.061167,  1.017923,  3.313642 )     2.07316520
  WF centre and spread  105  ( 10.338242,  3.973900, -0.088570 )     2.17413003
  WF centre and spread  106  ( 10.338121,  3.960814,  0.040598 )     2.07305410
  WF centre and spread  107  ( 10.338186,  4.002126,  0.040446 )     2.07333377
  WF centre and spread  108  ( 10.338243,  3.973900,  3.442872 )     2.17413143
  WF centre and spread  109  ( 10.338121,  3.960813,  3.313704 )     2.07305515
  WF centre and spread  110  ( 10.338186,  4.002126,  3.313856 )     2.07333527
  WF centre and spread  111  (  8.615188,  6.958285, -0.088576 )     2.17412677
  WF centre and spread  112  (  8.615166,  6.945194,  0.040504 )     2.07280277
  WF centre and spread  113  (  8.615048,  6.986590,  0.040530 )     2.07360044
  WF centre and spread  114  (  8.615188,  6.958285,  3.442879 )     2.17412814
  WF centre and spread  115  (  8.615166,  6.945194,  3.313798 )     2.07280394
  WF centre and spread  116  (  8.615048,  6.986590,  3.313772 )     2.07360179
  WF centre and spread  117  (  6.892061,  9.942523, -0.088566 )     2.17438178
  WF centre and spread  118  (  6.892059,  9.929422,  0.040704 )     2.07256381
  WF centre and spread  119  (  6.892090,  9.971090,  0.040724 )     2.07336994
  WF centre and spread  120  (  6.892061,  9.942523,  3.442869 )     2.17438038
  WF centre and spread  121  (  6.892059,  9.929422,  3.313599 )     2.07256246
  WF centre and spread  122  (  6.892090,  9.971090,  3.313579 )     2.07336863
  WF centre and spread  123  (  3.445905,  9.942474, -0.088551 )     2.17418795
  WF centre and spread  124  (  3.446030,  9.929491,  0.040541 )     2.07292950
  WF centre and spread  125  (  3.446086,  9.970994,  0.040413 )     2.07331098
  WF centre and spread  126  (  3.445905,  9.942474,  3.442853 )     2.17418830
  WF centre and spread  127  (  3.446030,  9.929491,  3.313761 )     2.07292999
  WF centre and spread  128  (  3.446086,  9.970994,  3.313890 )     2.07331111
  WF centre and spread  129  ( -0.000008,  9.942459, -0.088550 )     2.17424528
  WF centre and spread  130  ( -0.000020,  9.929552,  0.040404 )     2.07296306
  WF centre and spread  131  ( -0.000000,  9.970966,  0.040317 )     2.07347158
  WF centre and spread  132  ( -0.000008,  9.942459,  3.442852 )     2.17424541
  WF centre and spread  133  ( -0.000020,  9.929552,  3.313899 )     2.07296354
  WF centre and spread  134  ( -0.000000,  9.970965,  3.313985 )     2.07347146
  WF centre and spread  135  ( -3.445929,  9.942460, -0.088556 )     2.17420505
  WF centre and spread  136  ( -3.446052,  9.929508,  0.040552 )     2.07295151
  WF centre and spread  137  ( -3.446050,  9.970979,  0.040398 )     2.07333750
  WF centre and spread  138  ( -3.445929,  9.942460,  3.442859 )     2.17420537
  WF centre and spread  139  ( -3.446052,  9.929508,  3.313750 )     2.07295202
  WF centre and spread  140  ( -3.446051,  9.970979,  3.313904 )     2.07333764
  WF centre and spread  141  (  6.892083,  3.973864, -0.088606 )     2.17428892
  WF centre and spread  142  (  6.892059,  3.960861,  0.040774 )     2.07301861
  WF centre and spread  143  (  6.892088,  4.002085,  0.040658 )     2.07351180
  WF centre and spread  144  (  6.892083,  3.973864,  3.442908 )     2.17429244
  WF centre and spread  145  (  6.892059,  3.960861,  3.313528 )     2.07302179
  WF centre and spread  146  (  6.892088,  4.002085,  3.313643 )     2.07351496
  WF centre and spread  147  (  5.168963,  6.958282, -0.088584 )     2.17415426
  WF centre and spread  148  (  5.168965,  6.945178,  0.040525 )     2.07272214
  WF centre and spread  149  (  5.169140,  6.986610,  0.040528 )     2.07353816
  WF centre and spread  150  (  5.168963,  6.958283,  3.442887 )     2.17415567
  WF centre and spread  151  (  5.168965,  6.945178,  3.313777 )     2.07272333
  WF centre and spread  152  (  5.169140,  6.986610,  3.313774 )     2.07353952
  WF centre and spread  153  (  1.722935,  6.958226, -0.088552 )     2.17423846
  WF centre and spread  154  (  1.723018,  6.945129,  0.040422 )     2.07294096
  WF centre and spread  155  (  1.723060,  6.986560,  0.040306 )     2.07348892
  WF centre and spread  156  (  1.722935,  6.958227,  3.442854 )     2.17423857
  WF centre and spread  157  (  1.723017,  6.945129,  3.313880 )     2.07294096
  WF centre and spread  158  (  1.723059,  6.986560,  3.313997 )     2.07348922
  WF centre and spread  159  (  3.445897,  3.973911, -0.088581 )     2.17414109
  WF centre and spread  160  (  3.446011,  3.960809,  0.040636 )     2.07307051
  WF centre and spread  161  (  3.446003,  4.002126,  0.040456 )     2.07336643
  WF centre and spread  162  (  3.445896,  3.973911,  3.442883 )     2.17414246
  WF centre and spread  163  (  3.446010,  3.960809,  3.313666 )     2.07307156
  WF centre and spread  164  (  3.446002,  4.002126,  3.313847 )     2.07336791
  WF centre and spread  165  ( -0.000022,  3.973994, -0.088548 )     2.17416205
  WF centre and spread  166  ( -0.000004,  3.960739,  0.040474 )     2.07281779
  WF centre and spread  167  (  0.000021,  4.002226,  0.040486 )     2.07351315
  WF centre and spread  168  ( -0.000022,  3.973993,  3.442851 )     2.17416244
  WF centre and spread  169  ( -0.000004,  3.960739,  3.313828 )     2.07281773
  WF centre and spread  170  (  0.000021,  4.002226,  3.313817 )     2.07351383
  WF centre and spread  171  ( -1.722973,  6.958220, -0.088557 )     2.17427697
  WF centre and spread  172  ( -1.723045,  6.945144,  0.040403 )     2.07296442
  WF centre and spread  173  ( -1.723036,  6.986571,  0.040303 )     2.07344910
  WF centre and spread  174  ( -1.722973,  6.958220,  3.442860 )     2.17427709
  WF centre and spread  175  ( -1.723045,  6.945144,  3.313899 )     2.07296444
  WF centre and spread  176  ( -1.723036,  6.986571,  3.313999 )     2.07344947
  Sum of centres and spreads (620.287895,883.376316,295.178599 )   362.95416451
 
         Spreads (Ang^2)       Omega I      =   341.339861106
        ================       Omega D      =     0.000400566
                               Omega OD     =    21.614143080
    Final Spread (Ang^2)       Omega Total  =   362.954404752
 ------------------------------------------------------------------------------
 Final centres (translated to home cell for writing xyz file)
  WF centre    1  (  0.000008, -0.006581,  1.677152 )
  WF centre    2  (  0.000003,  0.031605,  1.677151 )
  WF centre    3  ( -0.000000, -0.031789,  1.677151 )
  WF centre    4  ( -0.000025,  0.142464,  1.677152 )
  WF centre    5  (  0.000079, -0.134134,  1.677152 )
  WF centre    6  (  3.446099, -0.006642,  1.677151 )
  WF centre    7  (  3.446075,  0.031609,  1.677151 )
  WF centre    8  (  3.446047, -0.031807,  1.677151 )
  WF centre    9  (  3.446054,  0.142484,  1.677152 )
  WF centre   10  (  3.446150, -0.134034,  1.677152 )
  WF centre   11  (  6.892100, -0.006642,  1.677151 )
  WF centre   12  (  6.892088,  0.031613,  1.677150 )
  WF centre   13  (  6.892085, -0.031799,  1.677150 )
  WF centre   14  (  6.892041,  0.142621,  1.677151 )
  WF centre   15  (  6.892156, -0.133935,  1.677151 )
  WF centre   16  ( 10.338067, -0.006639,  1.677151 )
  WF centre   17  ( 10.338099,  0.031610,  1.677151 )
  WF centre   18  ( 10.338124, -0.031805,  1.677151 )
  WF centre   19  ( 10.338066,  0.142475,  1.677152 )
  WF centre   20  ( 10.338190, -0.134014,  1.677152 )
  WF centre   21  (  8.615168,  2.977722,  1.677151 )
  WF centre   22  (  8.615119,  3.015969,  1.677150 )
  WF centre   23  (  8.615099,  2.952570,  1.677150 )
  WF centre   24  (  8.614949,  3.126920,  1.677151 )
  WF centre   25  (  8.615194,  2.850267,  1.677151 )
  WF centre   26  (  6.892086,  5.962177,  1.677151 )
  WF centre   27  (  6.892090,  6.000319,  1.677150 )
  WF centre   28  (  6.892086,  5.936941,  1.677150 )
  WF centre   29  (  6.892066,  6.111184,  1.677151 )
  WF centre   30  (  6.892177,  5.834462,  1.677151 )
  WF centre   31  (  5.169012,  8.946491,  1.677151 )
  WF centre   32  (  5.169039,  8.984682,  1.677151 )
  WF centre   33  (  5.169063,  8.921276,  1.677151 )
  WF centre   34  (  5.169095,  9.095426,  1.677152 )
  WF centre   35  (  5.169143,  8.818952,  1.677152 )
  WF centre   36  (  1.722949,  8.946466,  1.677151 )
  WF centre   37  (  1.723000,  8.984691,  1.677151 )
  WF centre   38  (  1.723021,  8.921276,  1.677151 )
  WF centre   39  (  1.722885,  9.095398,  1.677151 )
  WF centre   40  (  1.723316,  8.819134,  1.677152 )
  WF centre   41  ( -1.722938,  8.946459,  1.677151 )
  WF centre   42  ( -1.722998,  8.984691,  1.677151 )
  WF centre   43  ( -1.723022,  8.921275,  1.677151 )
  WF centre   44  ( -1.722958,  9.095419,  1.677151 )
  WF centre   45  ( -1.723164,  8.819135,  1.677152 )
  WF centre   46  ( -5.169007,  8.946496,  1.677151 )
  WF centre   47  ( -5.169033,  8.984681,  1.677151 )
  WF centre   48  ( -5.169063,  8.921276,  1.677151 )
  WF centre   49  ( -5.169142,  9.095410,  1.677152 )
  WF centre   50  ( -5.168981,  8.818961,  1.677152 )
  WF centre   51  (  5.169026,  2.977728,  1.677151 )
  WF centre   52  (  5.169058,  3.015968,  1.677150 )
  WF centre   53  (  5.169071,  2.952570,  1.677150 )
  WF centre   54  (  5.169177,  3.126915,  1.677151 )
  WF centre   55  (  5.169105,  2.850250,  1.677151 )
  WF centre   56  (  3.445969,  5.962149,  1.677151 )
  WF centre   57  (  3.446037,  6.000327,  1.677150 )
  WF centre   58  (  3.446048,  5.936935,  1.677150 )
  WF centre   59  (  3.445911,  6.111015,  1.677151 )
  WF centre   60  (  3.446552,  5.834597,  1.677151 )
  WF centre   61  ( -0.000009,  5.962183,  1.677151 )
  WF centre   62  ( -0.000000,  6.000334,  1.677151 )
  WF centre   63  (  0.000000,  5.936952,  1.677151 )
  WF centre   64  ( -0.000065,  6.110936,  1.677152 )
  WF centre   65  (  0.000127,  5.834740,  1.677151 )
  WF centre   66  (  1.722960,  2.977793,  1.677151 )
  WF centre   67  (  1.723019,  3.015975,  1.677151 )
  WF centre   68  (  1.723030,  2.952600,  1.677151 )
  WF centre   69  (  1.722968,  3.126830,  1.677152 )
  WF centre   70  (  1.723292,  2.850295,  1.677152 )
  WF centre   71  ( -1.722965,  2.977802,  1.677151 )
  WF centre   72  ( -1.723016,  3.015976,  1.677151 )
  WF centre   73  ( -1.723029,  2.952601,  1.677151 )
  WF centre   74  ( -1.723045,  3.126809,  1.677152 )
  WF centre   75  ( -1.723100,  2.850312,  1.677152 )
  WF centre   76  ( -3.445944,  5.962142,  1.677151 )
  WF centre   77  ( -3.446032,  6.000328,  1.677150 )
  WF centre   78  ( -3.446048,  5.936934,  1.677150 )
  WF centre   79  ( -3.445948,  6.111004,  1.677151 )
  WF centre   80  ( -3.446454,  5.834619,  1.677151 )
  WF centre   81  (  1.723037,  0.989480, -0.088569 )
  WF centre   82  (  1.722955,  0.976318,  0.040793 )
  WF centre   83  (  1.723031,  1.017937,  0.040660 )
  WF centre   84  (  1.723037,  0.989480,  3.442872 )
  WF centre   85  (  1.722955,  0.976318,  3.313510 )
  WF centre   86  (  1.723030,  1.017937,  3.313643 )
  WF centre   87  (  5.169072,  0.989344, -0.088588 )
  WF centre   88  (  5.168914,  0.976481,  0.040574 )
  WF centre   89  (  5.169116,  1.017754,  0.040494 )
  WF centre   90  (  5.169072,  0.989344,  3.442890 )
  WF centre   91  (  5.168914,  0.976480,  3.313728 )
  WF centre   92  (  5.169116,  1.017754,  3.313808 )
  WF centre   93  (  8.615081,  0.989349, -0.088584 )
  WF centre   94  (  8.615220,  0.976467,  0.040565 )
  WF centre   95  (  8.615068,  1.017761,  0.040461 )
  WF centre   96  (  8.615081,  0.989349,  3.442886 )
  WF centre   97  (  8.615220,  0.976467,  3.313738 )
  WF centre   98  (  8.615069,  1.017761,  3.313841 )
  WF centre   99  ( 12.061095,  0.989474, -0.088558 )
  WF centre  100  ( 12.061184,  0.976308,  0.040785 )
  WF centre  101  ( 12.061167,  1.017923,  0.040661 )
  WF centre  102  ( 12.061096,  0.989474,  3.442861 )
  WF centre  103  ( 12.061184,  0.976308,  3.313518 )
  WF centre  104  ( 12.061167,  1.017923,  3.313642 )
  WF centre  105  ( 10.338242,  3.973900, -0.088570 )
  WF centre  106  ( 10.338121,  3.960814,  0.040598 )
  WF centre  107  ( 10.338186,  4.002126,  0.040446 )
  WF centre  108  ( 10.338243,  3.973900,  3.442872 )
  WF centre  109  ( 10.338121,  3.960813,  3.313704 )
  WF centre  110  ( 10.338186,  4.002126,  3.313856 )
  WF centre  111  (  8.615188,  6.958285, -0.088576 )
  WF centre  112  (  8.615166,  6.945194,  0.040504 )
  WF centre  113  (  8.615048,  6.986590,  0.040530 )
  WF centre  114  (  8.615188,  6.958285,  3.442879 )
  WF centre  115  (  8.615166,  6.945194,  3.313798 )
  WF centre  116  (  8.615048,  6.986590,  3.313772 )
  WF centre  117  (  6.892061,  9.942523, -0.088566 )
  WF centre  118  (  6.892059,  9.929422,  0.040704 )
  WF centre  119  (  6.892090,  9.971090,  0.040724 )
  WF centre  120  (  6.892061,  9.942523,  3.442869 )
  WF centre  121  (  6.892059,  9.929422,  3.313599 )
  WF centre  122  (  6.892090,  9.971090,  3.313579 )
  WF centre  123  (  3.445905,  9.942474, -0.088551 )
  WF centre  124  (  3.446030,  9.929491,  0.040541 )
  WF centre  125  (  3.446086,  9.970994,  0.040413 )
  WF centre  126  (  3.445905,  9.942474,  3.442853 )
  WF centre  127  (  3.446030,  9.929491,  3.313761 )
  WF centre  128  (  3.446086,  9.970994,  3.313890 )
  WF centre  129  ( -0.000008,  9.942459, -0.088550 )
  WF centre  130  ( -0.000020,  9.929552,  0.040404 )
  WF centre  131  ( -0.000000,  9.970966,  0.040317 )
  WF centre  132  ( -0.000008,  9.942459,  3.442852 )
  WF centre  133  ( -0.000020,  9.929552,  3.313899 )
  WF centre  134  ( -0.000000,  9.970965,  3.313985 )
  WF centre  135  ( -3.445929,  9.942460, -0.088556 )
  WF centre  136  ( -3.446052,  9.929508,  0.040552 )
  WF centre  137  ( -3.446050,  9.970979,  0.040398 )
  WF centre  138  ( -3.445929,  9.942460,  3.442859 )
  WF centre  139  ( -3.446052,  9.929508,  3.313750 )
  WF centre  140  ( -3.446051,  9.970979,  3.313904 )
  WF centre  141  (  6.892083,  3.973864, -0.088606 )
  WF centre  142  (  6.892059,  3.960861,  0.040774 )
  WF centre  143  (  6.892088,  4.002085,  0.040658 )
  WF centre  144  (  6.892083,  3.973864,  3.442908 )
  WF centre  145  (  6.892059,  3.960861,  3.313528 )
  WF centre  146  (  6.892088,  4.002085,  3.313643 )
  WF centre  147  (  5.168963,  6.958282, -0.088584 )
  WF centre  148  (  5.168965,  6.945178,  0.040525 )
  WF centre  149  (  5.169140,  6.986610,  0.040528 )
  WF centre  150  (  5.168963,  6.958283,  3.442887 )
  WF centre  151  (  5.168965,  6.945178,  3.313777 )
  WF centre  152  (  5.169140,  6.986610,  3.313774 )
  WF centre  153  (  1.722935,  6.958226, -0.088552 )
  WF centre  154  (  1.723018,  6.945129,  0.040422 )
  WF centre  155  (  1.723060,  6.986560,  0.040306 )
  WF centre  156  (  1.722935,  6.958227,  3.442854 )
  WF centre  157  (  1.723017,  6.945129,  3.313880 )
  WF centre  158  (  1.723059,  6.986560,  3.313997 )
  WF centre  159  (  3.445897,  3.973911, -0.088581 )
  WF centre  160  (  3.446011,  3.960809,  0.040636 )
  WF centre  161  (  3.446003,  4.002126,  0.040456 )
  WF centre  162  (  3.445896,  3.973911,  3.442883 )
  WF centre  163  (  3.446010,  3.960809,  3.313666 )
  WF centre  164  (  3.446002,  4.002126,  3.313847 )
  WF centre  165  ( -0.000022,  3.973994, -0.088548 )
  WF centre  166  ( -0.000004,  3.960739,  0.040474 )
  WF centre  167  (  0.000021,  4.002226,  0.040486 )
  WF centre  168  ( -0.000022,  3.973993,  3.442851 )
  WF centre  169  ( -0.000004,  3.960739,  3.313828 )
  WF centre  170  (  0.000021,  4.002226,  3.313817 )
  WF centre  171  ( -1.722973,  6.958220, -0.088557 )
  WF centre  172  ( -1.723045,  6.945144,  0.040403 )
  WF centre  173  ( -1.723036,  6.986571,  0.040303 )
  WF centre  174  ( -1.722973,  6.958220,  3.442860 )
  WF centre  175  ( -1.723045,  6.945144,  3.313899 )
  WF centre  176  ( -1.723036,  6.986571,  3.313999 )
 ------------------------------------------------------------------------------
 

 Wannier centres written to file 1Fe_initialconf.down_centres.xyz
  
  Omega Invariant:   1-s^2 =   341.339861106 (Ang^2)
                   -2log s =   351.276239364 (Ang^2)
                    acos^2 =   347.891269463 (Ang^2)
 Time for wannierise           30.897 (sec)

 Writing checkpoint file 1Fe_initialconf.down.chk... done

 *---------------------------------------------------------------------------*
 |                               PLOTTING                                    |
 *---------------------------------------------------------------------------*
 
    9 lattice points in Wigner-Seitz supercell:

      vector  -1  -2   0   degeneracy:  1
      vector  -1  -1   0   degeneracy:  1
      vector  -1   0   0   degeneracy:  1
      vector   0  -1   0   degeneracy:  1
      vector   0   0   0   degeneracy:  1
      vector   0   1   0   degeneracy:  1
      vector   1   0   0   degeneracy:  1
      vector   1   1   0   degeneracy:  1
      vector   1   2   0   degeneracy:  1
  tot =        9.000
  mp_grid product =            9
 
 Calculating interpolated band-structure
 
 Time to calculate interpolated band structure       9.860 (sec)
 
 Time for plotting             10.512 (sec)
 Total Execution Time          71.469 (sec)

 *===========================================================================*
 |                             TIMING INFORMATION                            |
 *===========================================================================*
 |    Tag                                                Ncalls      Time (s)|
 |---------------------------------------------------------------------------|
 |kmesh: get                                        :         1         0.011|
 |overlap: allocate                                 :         1         0.002|
 |overlap: read                                     :         1         6.119|
 |dis: main                                         :         1        23.894|
 |wann: main                                        :         1        30.897|
 |plot: main                                        :         1        10.512|
 *---------------------------------------------------------------------------*
 
 All done: wannier90 exiting
