 
             +---------------------------------------------------+
             |                                                   |
             |                   WANNIER90                       |
             |                                                   |
             +---------------------------------------------------+
             |                                                   |
             |        Welcome to the Maximally-Localized         |
             |        Generalized Wannier Functions code         |
             |            http://www.wannier.org                 |
             |                                                   |
             |                                                   |
             |  Wannier90 Developer Group:                       |
             |    Giovanni Pizzi    (EPFL)                       |
             |    Valerio Vitale    (Cambridge)                  |
             |    David Vanderbilt  (Rutgers University)         |
             |    Nicola Marzari    (EPFL)                       |
             |    Ivo Souza         (Universidad del Pais Vasco) |
             |    Arash A. Mostofi  (Imperial College London)    |
             |    Jonathan R. Yates (University of Oxford)       |
             |                                                   |
             |  For the full list of Wannier90 3.x authors,      |
             |  please check the code documentation and the      |
             |  README on the GitHub page of the code            |
             |                                                   |
             |                                                   |
             |  Please cite                                      |
             |                                                   |
             |  [ref] "Wannier90 as a community code:            |
             |        new features and applications",            |
             |        G. Pizzi et al., J. Phys. Cond. Matt. 32,  |
             |        165902 (2020).                             |
             |        http://doi.org/10.1088/1361-648X/ab51ff    |
             |                                                   |
             |  in any publications arising from the use of      |
             |  this code. For the method please cite            |
             |                                                   |
             |  [ref] "Maximally Localized Generalised Wannier   |
             |         Functions for Composite Energy Bands"     |
             |         N. Marzari and D. Vanderbilt              |
             |         Phys. Rev. B 56 12847 (1997)              |
             |                                                   |
             |  [ref] "Maximally Localized Wannier Functions     |
             |         for Entangled Energy Bands"               |
             |         I. Souza, N. Marzari and D. Vanderbilt    |
             |         Phys. Rev. B 65 035109 (2001)             |
             |                                                   |
             |                                                   |
             | Copyright (c) 1996-2020                           |
             |        The Wannier90 Developer Group and          |
             |        individual contributors                    |
             |                                                   |
             |      Release: 3.1.0        5th March    2020      |
             |                                                   |
             | This program is free software; you can            |
             | redistribute it and/or modify it under the terms  |
             | of the GNU General Public License as published by |
             | the Free Software Foundation; either version 2 of |
             | the License, or (at your option) any later version|
             |                                                   |
             | This program is distributed in the hope that it   |
             | will be useful, but WITHOUT ANY WARRANTY; without |
             | even the implied warranty of MERCHANTABILITY or   |
             | FITNESS FOR A PARTICULAR PURPOSE. See the GNU     |
             | General Public License for more details.          |
             |                                                   |
             | You should have received a copy of the GNU General|
             | Public License along with this program; if not,   |
             | write to the Free Software Foundation, Inc.,      |
             | 675 Mass Ave, Cambridge, MA 02139, USA.           |
             |                                                   |
             +---------------------------------------------------+
             |    Execution started on 13Apr2023 at 11:51:53     |
             +---------------------------------------------------+
 
 ******************************************************************************
 * -> Using CODATA 2006 constant values                                       *
 *    (http://physics.nist.gov/cuu/Constants/index.html)                      *
 * -> Using Bohr value from CODATA                                            *
 ******************************************************************************
 

 Running in parallel on  40 CPUs

 
                                    ------
                                    SYSTEM
                                    ------
 
                              Lattice Vectors (Ang)
                    a_1    13.784171   0.000000   0.000000
                    a_2    -6.892085  11.937442   0.000000
                    a_3     0.000000   0.000000  23.631430
 
                   Unit Cell Volume:    3888.49848  (Ang^3)
 
                        Reciprocal-Space Vectors (Ang^-1)
                    b_1     0.455826   0.263171   0.000000
                    b_2     0.000000   0.526343   0.000000
                    b_3     0.000000   0.000000   0.265883
  
 *----------------------------------------------------------------------------*
 |   Site       Fractional Coordinate          Cartesian Coordinate (Ang)     |
 +----------------------------------------------------------------------------+
 | Nb   1   0.00000   0.00000   0.07097   |    0.00000   0.00000   1.67715    |
 | Nb   2   0.25000   0.00000   0.07097   |    3.44604   0.00000   1.67715    |
 | Nb   3   0.50000   0.00000   0.07097   |    6.89209   0.00000   1.67715    |
 | Nb   4   0.75000   0.00000   0.07097   |   10.33813   0.00000   1.67715    |
 | Nb   5   0.75000   0.25000   0.07097   |    8.61511   2.98436   1.67715    |
 | Nb   6   0.75000   0.50000   0.07097   |    6.89209   5.96872   1.67715    |
 | Nb   7   0.75000   0.75000   0.07097   |    5.16906   8.95308   1.67715    |
 | Nb   8   0.50000   0.75000   0.07097   |    1.72302   8.95308   1.67715    |
 | Nb   9   0.25000   0.75000   0.07097   |   -1.72302   8.95308   1.67715    |
 | Nb  10   0.00000   0.75000   0.07097   |   -5.16906   8.95308   1.67715    |
 | Nb  11   0.50000   0.25000   0.07097   |    5.16906   2.98436   1.67715    |
 | Nb  12   0.50000   0.50000   0.07097   |    3.44604   5.96872   1.67715    |
 | Nb  13   0.25000   0.50000   0.07097   |    0.00000   5.96872   1.67715    |
 | Nb  14   0.25000   0.25000   0.07097   |    1.72302   2.98436   1.67715    |
 | Nb  15   0.00000   0.25000   0.07097   |   -1.72302   2.98436   1.67715    |
 | Nb  16   0.00000   0.50000   0.07097   |   -3.44604   5.96872   1.67715    |
 | Se   1   0.16667   0.08333   0.00000   |    1.72302   0.99479   0.00000    |
 | Se   2   0.16667   0.08333   0.14194   |    1.72302   0.99479   3.35430    |
 | Se   3   0.41667   0.08333   0.00000   |    5.16906   0.99479   0.00000    |
 | Se   4   0.41667   0.08333   0.14194   |    5.16906   0.99479   3.35430    |
 | Se   5   0.66667   0.08333   0.00000   |    8.61511   0.99479   0.00000    |
 | Se   6   0.66667   0.08333   0.14194   |    8.61511   0.99479   3.35430    |
 | Se   7   0.91667   0.08333   0.00000   |   12.06115   0.99479   0.00000    |
 | Se   8   0.91667   0.08333   0.14194   |   12.06115   0.99479   3.35430    |
 | Se   9   0.91667   0.33333   0.00000   |   10.33813   3.97915   0.00000    |
 | Se  10   0.91667   0.33333   0.14194   |   10.33813   3.97915   3.35430    |
 | Se  11   0.91667   0.58333   0.00000   |    8.61511   6.96351   0.00000    |
 | Se  12   0.91667   0.58333   0.14194   |    8.61511   6.96351   3.35430    |
 | Se  13   0.91667   0.83333   0.00000   |    6.89209   9.94787   0.00000    |
 | Se  14   0.91667   0.83333   0.14194   |    6.89209   9.94787   3.35430    |
 | Se  15   0.66667   0.83333   0.00000   |    3.44604   9.94787   0.00000    |
 | Se  16   0.66667   0.83333   0.14194   |    3.44604   9.94787   3.35430    |
 | Se  17   0.41667   0.83333   0.00000   |    0.00000   9.94787   0.00000    |
 | Se  18   0.41667   0.83333   0.14194   |    0.00000   9.94787   3.35430    |
 | Se  19   0.16667   0.83333   0.00000   |   -3.44604   9.94787   0.00000    |
 | Se  20   0.16667   0.83333   0.14194   |   -3.44604   9.94787   3.35430    |
 | Se  21   0.66667   0.33333   0.00000   |    6.89209   3.97915   0.00000    |
 | Se  22   0.66667   0.33333   0.14194   |    6.89209   3.97915   3.35430    |
 | Se  23   0.66667   0.58333   0.00000   |    5.16906   6.96351   0.00000    |
 | Se  24   0.66667   0.58333   0.14194   |    5.16906   6.96351   3.35430    |
 | Se  25   0.41667   0.58333   0.00000   |    1.72302   6.96351   0.00000    |
 | Se  26   0.41667   0.58333   0.14194   |    1.72302   6.96351   3.35430    |
 | Se  27   0.41667   0.33333   0.00000   |    3.44604   3.97915   0.00000    |
 | Se  28   0.41667   0.33333   0.14194   |    3.44604   3.97915   3.35430    |
 | Se  29   0.16667   0.33333   0.00000   |    0.00000   3.97915   0.00000    |
 | Se  30   0.16667   0.33333   0.14194   |    0.00000   3.97915   3.35430    |
 | Se  31   0.16667   0.58333   0.00000   |   -1.72302   6.96351   0.00000    |
 | Se  32   0.16667   0.58333   0.14194   |   -1.72302   6.96351   3.35430    |
 *----------------------------------------------------------------------------*
                                -----------
                                PROJECTIONS
                                -----------
  
 +----------------------------------------------------------------------------+
 |     Frac. Coord.   l mr  r        z-axis               x-axis          Z/a |
 +----------------------------------------------------------------------------+
 |  0.00  0.00  0.07  2  1  1  0.000  0.000  1.000  1.000  0.000  0.000   1.0 |
 |  0.00  0.00  0.07  2  2  1  0.000  0.000  1.000  1.000  0.000  0.000   1.0 |
 |  0.00  0.00  0.07  2  3  1  0.000  0.000  1.000  1.000  0.000  0.000   1.0 |
 |  0.00  0.00  0.07  2  4  1  0.000  0.000  1.000  1.000  0.000  0.000   1.0 |
 |  0.00  0.00  0.07  2  5  1  0.000  0.000  1.000  1.000  0.000  0.000   1.0 |
 |  0.25  0.00  0.07  2  1  1  0.000  0.000  1.000  1.000  0.000  0.000   1.0 |
 |  0.25  0.00  0.07  2  2  1  0.000  0.000  1.000  1.000  0.000  0.000   1.0 |
 |  0.25  0.00  0.07  2  3  1  0.000  0.000  1.000  1.000  0.000  0.000   1.0 |
 |  0.25  0.00  0.07  2  4  1  0.000  0.000  1.000  1.000  0.000  0.000   1.0 |
 |  0.25  0.00  0.07  2  5  1  0.000  0.000  1.000  1.000  0.000  0.000   1.0 |
 |  0.50  0.00  0.07  2  1  1  0.000  0.000  1.000  1.000  0.000  0.000   1.0 |
 |  0.50  0.00  0.07  2  2  1  0.000  0.000  1.000  1.000  0.000  0.000   1.0 |
 |  0.50  0.00  0.07  2  3  1  0.000  0.000  1.000  1.000  0.000  0.000   1.0 |
 |  0.50  0.00  0.07  2  4  1  0.000  0.000  1.000  1.000  0.000  0.000   1.0 |
 |  0.50  0.00  0.07  2  5  1  0.000  0.000  1.000  1.000  0.000  0.000   1.0 |
 |  0.75  0.00  0.07  2  1  1  0.000  0.000  1.000  1.000  0.000  0.000   1.0 |
 |  0.75  0.00  0.07  2  2  1  0.000  0.000  1.000  1.000  0.000  0.000   1.0 |
 |  0.75  0.00  0.07  2  3  1  0.000  0.000  1.000  1.000  0.000  0.000   1.0 |
 |  0.75  0.00  0.07  2  4  1  0.000  0.000  1.000  1.000  0.000  0.000   1.0 |
 |  0.75  0.00  0.07  2  5  1  0.000  0.000  1.000  1.000  0.000  0.000   1.0 |
 |  0.75  0.25  0.07  2  1  1  0.000  0.000  1.000  1.000  0.000  0.000   1.0 |
 |  0.75  0.25  0.07  2  2  1  0.000  0.000  1.000  1.000  0.000  0.000   1.0 |
 |  0.75  0.25  0.07  2  3  1  0.000  0.000  1.000  1.000  0.000  0.000   1.0 |
 |  0.75  0.25  0.07  2  4  1  0.000  0.000  1.000  1.000  0.000  0.000   1.0 |
 |  0.75  0.25  0.07  2  5  1  0.000  0.000  1.000  1.000  0.000  0.000   1.0 |
 |  0.75  0.50  0.07  2  1  1  0.000  0.000  1.000  1.000  0.000  0.000   1.0 |
 |  0.75  0.50  0.07  2  2  1  0.000  0.000  1.000  1.000  0.000  0.000   1.0 |
 |  0.75  0.50  0.07  2  3  1  0.000  0.000  1.000  1.000  0.000  0.000   1.0 |
 |  0.75  0.50  0.07  2  4  1  0.000  0.000  1.000  1.000  0.000  0.000   1.0 |
 |  0.75  0.50  0.07  2  5  1  0.000  0.000  1.000  1.000  0.000  0.000   1.0 |
 |  0.75  0.75  0.07  2  1  1  0.000  0.000  1.000  1.000  0.000  0.000   1.0 |
 |  0.75  0.75  0.07  2  2  1  0.000  0.000  1.000  1.000  0.000  0.000   1.0 |
 |  0.75  0.75  0.07  2  3  1  0.000  0.000  1.000  1.000  0.000  0.000   1.0 |
 |  0.75  0.75  0.07  2  4  1  0.000  0.000  1.000  1.000  0.000  0.000   1.0 |
 |  0.75  0.75  0.07  2  5  1  0.000  0.000  1.000  1.000  0.000  0.000   1.0 |
 |  0.50  0.75  0.07  2  1  1  0.000  0.000  1.000  1.000  0.000  0.000   1.0 |
 |  0.50  0.75  0.07  2  2  1  0.000  0.000  1.000  1.000  0.000  0.000   1.0 |
 |  0.50  0.75  0.07  2  3  1  0.000  0.000  1.000  1.000  0.000  0.000   1.0 |
 |  0.50  0.75  0.07  2  4  1  0.000  0.000  1.000  1.000  0.000  0.000   1.0 |
 |  0.50  0.75  0.07  2  5  1  0.000  0.000  1.000  1.000  0.000  0.000   1.0 |
 |  0.25  0.75  0.07  2  1  1  0.000  0.000  1.000  1.000  0.000  0.000   1.0 |
 |  0.25  0.75  0.07  2  2  1  0.000  0.000  1.000  1.000  0.000  0.000   1.0 |
 |  0.25  0.75  0.07  2  3  1  0.000  0.000  1.000  1.000  0.000  0.000   1.0 |
 |  0.25  0.75  0.07  2  4  1  0.000  0.000  1.000  1.000  0.000  0.000   1.0 |
 |  0.25  0.75  0.07  2  5  1  0.000  0.000  1.000  1.000  0.000  0.000   1.0 |
 |  0.00  0.75  0.07  2  1  1  0.000  0.000  1.000  1.000  0.000  0.000   1.0 |
 |  0.00  0.75  0.07  2  2  1  0.000  0.000  1.000  1.000  0.000  0.000   1.0 |
 |  0.00  0.75  0.07  2  3  1  0.000  0.000  1.000  1.000  0.000  0.000   1.0 |
 |  0.00  0.75  0.07  2  4  1  0.000  0.000  1.000  1.000  0.000  0.000   1.0 |
 |  0.00  0.75  0.07  2  5  1  0.000  0.000  1.000  1.000  0.000  0.000   1.0 |
 |  0.50  0.25  0.07  2  1  1  0.000  0.000  1.000  1.000  0.000  0.000   1.0 |
 |  0.50  0.25  0.07  2  2  1  0.000  0.000  1.000  1.000  0.000  0.000   1.0 |
 |  0.50  0.25  0.07  2  3  1  0.000  0.000  1.000  1.000  0.000  0.000   1.0 |
 |  0.50  0.25  0.07  2  4  1  0.000  0.000  1.000  1.000  0.000  0.000   1.0 |
 |  0.50  0.25  0.07  2  5  1  0.000  0.000  1.000  1.000  0.000  0.000   1.0 |
 |  0.50  0.50  0.07  2  1  1  0.000  0.000  1.000  1.000  0.000  0.000   1.0 |
 |  0.50  0.50  0.07  2  2  1  0.000  0.000  1.000  1.000  0.000  0.000   1.0 |
 |  0.50  0.50  0.07  2  3  1  0.000  0.000  1.000  1.000  0.000  0.000   1.0 |
 |  0.50  0.50  0.07  2  4  1  0.000  0.000  1.000  1.000  0.000  0.000   1.0 |
 |  0.50  0.50  0.07  2  5  1  0.000  0.000  1.000  1.000  0.000  0.000   1.0 |
 |  0.25  0.50  0.07  2  1  1  0.000  0.000  1.000  1.000  0.000  0.000   1.0 |
 |  0.25  0.50  0.07  2  2  1  0.000  0.000  1.000  1.000  0.000  0.000   1.0 |
 |  0.25  0.50  0.07  2  3  1  0.000  0.000  1.000  1.000  0.000  0.000   1.0 |
 |  0.25  0.50  0.07  2  4  1  0.000  0.000  1.000  1.000  0.000  0.000   1.0 |
 |  0.25  0.50  0.07  2  5  1  0.000  0.000  1.000  1.000  0.000  0.000   1.0 |
 |  0.25  0.25  0.07  2  1  1  0.000  0.000  1.000  1.000  0.000  0.000   1.0 |
 |  0.25  0.25  0.07  2  2  1  0.000  0.000  1.000  1.000  0.000  0.000   1.0 |
 |  0.25  0.25  0.07  2  3  1  0.000  0.000  1.000  1.000  0.000  0.000   1.0 |
 |  0.25  0.25  0.07  2  4  1  0.000  0.000  1.000  1.000  0.000  0.000   1.0 |
 |  0.25  0.25  0.07  2  5  1  0.000  0.000  1.000  1.000  0.000  0.000   1.0 |
 |  0.00  0.25  0.07  2  1  1  0.000  0.000  1.000  1.000  0.000  0.000   1.0 |
 |  0.00  0.25  0.07  2  2  1  0.000  0.000  1.000  1.000  0.000  0.000   1.0 |
 |  0.00  0.25  0.07  2  3  1  0.000  0.000  1.000  1.000  0.000  0.000   1.0 |
 |  0.00  0.25  0.07  2  4  1  0.000  0.000  1.000  1.000  0.000  0.000   1.0 |
 |  0.00  0.25  0.07  2  5  1  0.000  0.000  1.000  1.000  0.000  0.000   1.0 |
 |  0.00  0.50  0.07  2  1  1  0.000  0.000  1.000  1.000  0.000  0.000   1.0 |
 |  0.00  0.50  0.07  2  2  1  0.000  0.000  1.000  1.000  0.000  0.000   1.0 |
 |  0.00  0.50  0.07  2  3  1  0.000  0.000  1.000  1.000  0.000  0.000   1.0 |
 |  0.00  0.50  0.07  2  4  1  0.000  0.000  1.000  1.000  0.000  0.000   1.0 |
 |  0.00  0.50  0.07  2  5  1  0.000  0.000  1.000  1.000  0.000  0.000   1.0 |
 |  0.17  0.08  0.00  1  1  1  0.000  0.000  1.000  1.000  0.000  0.000   1.0 |
 |  0.17  0.08  0.00  1  2  1  0.000  0.000  1.000  1.000  0.000  0.000   1.0 |
 |  0.17  0.08  0.00  1  3  1  0.000  0.000  1.000  1.000  0.000  0.000   1.0 |
 |  0.17  0.08  0.14  1  1  1  0.000  0.000  1.000  1.000  0.000  0.000   1.0 |
 |  0.17  0.08  0.14  1  2  1  0.000  0.000  1.000  1.000  0.000  0.000   1.0 |
 |  0.17  0.08  0.14  1  3  1  0.000  0.000  1.000  1.000  0.000  0.000   1.0 |
 |  0.42  0.08  0.00  1  1  1  0.000  0.000  1.000  1.000  0.000  0.000   1.0 |
 |  0.42  0.08  0.00  1  2  1  0.000  0.000  1.000  1.000  0.000  0.000   1.0 |
 |  0.42  0.08  0.00  1  3  1  0.000  0.000  1.000  1.000  0.000  0.000   1.0 |
 |  0.42  0.08  0.14  1  1  1  0.000  0.000  1.000  1.000  0.000  0.000   1.0 |
 |  0.42  0.08  0.14  1  2  1  0.000  0.000  1.000  1.000  0.000  0.000   1.0 |
 |  0.42  0.08  0.14  1  3  1  0.000  0.000  1.000  1.000  0.000  0.000   1.0 |
 |  0.67  0.08  0.00  1  1  1  0.000  0.000  1.000  1.000  0.000  0.000   1.0 |
 |  0.67  0.08  0.00  1  2  1  0.000  0.000  1.000  1.000  0.000  0.000   1.0 |
 |  0.67  0.08  0.00  1  3  1  0.000  0.000  1.000  1.000  0.000  0.000   1.0 |
 |  0.67  0.08  0.14  1  1  1  0.000  0.000  1.000  1.000  0.000  0.000   1.0 |
 |  0.67  0.08  0.14  1  2  1  0.000  0.000  1.000  1.000  0.000  0.000   1.0 |
 |  0.67  0.08  0.14  1  3  1  0.000  0.000  1.000  1.000  0.000  0.000   1.0 |
 |  0.92  0.08  0.00  1  1  1  0.000  0.000  1.000  1.000  0.000  0.000   1.0 |
 |  0.92  0.08  0.00  1  2  1  0.000  0.000  1.000  1.000  0.000  0.000   1.0 |
 |  0.92  0.08  0.00  1  3  1  0.000  0.000  1.000  1.000  0.000  0.000   1.0 |
 |  0.92  0.08  0.14  1  1  1  0.000  0.000  1.000  1.000  0.000  0.000   1.0 |
 |  0.92  0.08  0.14  1  2  1  0.000  0.000  1.000  1.000  0.000  0.000   1.0 |
 |  0.92  0.08  0.14  1  3  1  0.000  0.000  1.000  1.000  0.000  0.000   1.0 |
 |  0.92  0.33  0.00  1  1  1  0.000  0.000  1.000  1.000  0.000  0.000   1.0 |
 |  0.92  0.33  0.00  1  2  1  0.000  0.000  1.000  1.000  0.000  0.000   1.0 |
 |  0.92  0.33  0.00  1  3  1  0.000  0.000  1.000  1.000  0.000  0.000   1.0 |
 |  0.92  0.33  0.14  1  1  1  0.000  0.000  1.000  1.000  0.000  0.000   1.0 |
 |  0.92  0.33  0.14  1  2  1  0.000  0.000  1.000  1.000  0.000  0.000   1.0 |
 |  0.92  0.33  0.14  1  3  1  0.000  0.000  1.000  1.000  0.000  0.000   1.0 |
 |  0.92  0.58  0.00  1  1  1  0.000  0.000  1.000  1.000  0.000  0.000   1.0 |
 |  0.92  0.58  0.00  1  2  1  0.000  0.000  1.000  1.000  0.000  0.000   1.0 |
 |  0.92  0.58  0.00  1  3  1  0.000  0.000  1.000  1.000  0.000  0.000   1.0 |
 |  0.92  0.58  0.14  1  1  1  0.000  0.000  1.000  1.000  0.000  0.000   1.0 |
 |  0.92  0.58  0.14  1  2  1  0.000  0.000  1.000  1.000  0.000  0.000   1.0 |
 |  0.92  0.58  0.14  1  3  1  0.000  0.000  1.000  1.000  0.000  0.000   1.0 |
 |  0.92  0.83  0.00  1  1  1  0.000  0.000  1.000  1.000  0.000  0.000   1.0 |
 |  0.92  0.83  0.00  1  2  1  0.000  0.000  1.000  1.000  0.000  0.000   1.0 |
 |  0.92  0.83  0.00  1  3  1  0.000  0.000  1.000  1.000  0.000  0.000   1.0 |
 |  0.92  0.83  0.14  1  1  1  0.000  0.000  1.000  1.000  0.000  0.000   1.0 |
 |  0.92  0.83  0.14  1  2  1  0.000  0.000  1.000  1.000  0.000  0.000   1.0 |
 |  0.92  0.83  0.14  1  3  1  0.000  0.000  1.000  1.000  0.000  0.000   1.0 |
 |  0.67  0.83  0.00  1  1  1  0.000  0.000  1.000  1.000  0.000  0.000   1.0 |
 |  0.67  0.83  0.00  1  2  1  0.000  0.000  1.000  1.000  0.000  0.000   1.0 |
 |  0.67  0.83  0.00  1  3  1  0.000  0.000  1.000  1.000  0.000  0.000   1.0 |
 |  0.67  0.83  0.14  1  1  1  0.000  0.000  1.000  1.000  0.000  0.000   1.0 |
 |  0.67  0.83  0.14  1  2  1  0.000  0.000  1.000  1.000  0.000  0.000   1.0 |
 |  0.67  0.83  0.14  1  3  1  0.000  0.000  1.000  1.000  0.000  0.000   1.0 |
 |  0.42  0.83  0.00  1  1  1  0.000  0.000  1.000  1.000  0.000  0.000   1.0 |
 |  0.42  0.83  0.00  1  2  1  0.000  0.000  1.000  1.000  0.000  0.000   1.0 |
 |  0.42  0.83  0.00  1  3  1  0.000  0.000  1.000  1.000  0.000  0.000   1.0 |
 |  0.42  0.83  0.14  1  1  1  0.000  0.000  1.000  1.000  0.000  0.000   1.0 |
 |  0.42  0.83  0.14  1  2  1  0.000  0.000  1.000  1.000  0.000  0.000   1.0 |
 |  0.42  0.83  0.14  1  3  1  0.000  0.000  1.000  1.000  0.000  0.000   1.0 |
 |  0.17  0.83  0.00  1  1  1  0.000  0.000  1.000  1.000  0.000  0.000   1.0 |
 |  0.17  0.83  0.00  1  2  1  0.000  0.000  1.000  1.000  0.000  0.000   1.0 |
 |  0.17  0.83  0.00  1  3  1  0.000  0.000  1.000  1.000  0.000  0.000   1.0 |
 |  0.17  0.83  0.14  1  1  1  0.000  0.000  1.000  1.000  0.000  0.000   1.0 |
 |  0.17  0.83  0.14  1  2  1  0.000  0.000  1.000  1.000  0.000  0.000   1.0 |
 |  0.17  0.83  0.14  1  3  1  0.000  0.000  1.000  1.000  0.000  0.000   1.0 |
 |  0.67  0.33  0.00  1  1  1  0.000  0.000  1.000  1.000  0.000  0.000   1.0 |
 |  0.67  0.33  0.00  1  2  1  0.000  0.000  1.000  1.000  0.000  0.000   1.0 |
 |  0.67  0.33  0.00  1  3  1  0.000  0.000  1.000  1.000  0.000  0.000   1.0 |
 |  0.67  0.33  0.14  1  1  1  0.000  0.000  1.000  1.000  0.000  0.000   1.0 |
 |  0.67  0.33  0.14  1  2  1  0.000  0.000  1.000  1.000  0.000  0.000   1.0 |
 |  0.67  0.33  0.14  1  3  1  0.000  0.000  1.000  1.000  0.000  0.000   1.0 |
 |  0.67  0.58  0.00  1  1  1  0.000  0.000  1.000  1.000  0.000  0.000   1.0 |
 |  0.67  0.58  0.00  1  2  1  0.000  0.000  1.000  1.000  0.000  0.000   1.0 |
 |  0.67  0.58  0.00  1  3  1  0.000  0.000  1.000  1.000  0.000  0.000   1.0 |
 |  0.67  0.58  0.14  1  1  1  0.000  0.000  1.000  1.000  0.000  0.000   1.0 |
 |  0.67  0.58  0.14  1  2  1  0.000  0.000  1.000  1.000  0.000  0.000   1.0 |
 |  0.67  0.58  0.14  1  3  1  0.000  0.000  1.000  1.000  0.000  0.000   1.0 |
 |  0.42  0.58  0.00  1  1  1  0.000  0.000  1.000  1.000  0.000  0.000   1.0 |
 |  0.42  0.58  0.00  1  2  1  0.000  0.000  1.000  1.000  0.000  0.000   1.0 |
 |  0.42  0.58  0.00  1  3  1  0.000  0.000  1.000  1.000  0.000  0.000   1.0 |
 |  0.42  0.58  0.14  1  1  1  0.000  0.000  1.000  1.000  0.000  0.000   1.0 |
 |  0.42  0.58  0.14  1  2  1  0.000  0.000  1.000  1.000  0.000  0.000   1.0 |
 |  0.42  0.58  0.14  1  3  1  0.000  0.000  1.000  1.000  0.000  0.000   1.0 |
 |  0.42  0.33  0.00  1  1  1  0.000  0.000  1.000  1.000  0.000  0.000   1.0 |
 |  0.42  0.33  0.00  1  2  1  0.000  0.000  1.000  1.000  0.000  0.000   1.0 |
 |  0.42  0.33  0.00  1  3  1  0.000  0.000  1.000  1.000  0.000  0.000   1.0 |
 |  0.42  0.33  0.14  1  1  1  0.000  0.000  1.000  1.000  0.000  0.000   1.0 |
 |  0.42  0.33  0.14  1  2  1  0.000  0.000  1.000  1.000  0.000  0.000   1.0 |
 |  0.42  0.33  0.14  1  3  1  0.000  0.000  1.000  1.000  0.000  0.000   1.0 |
 |  0.17  0.33  0.00  1  1  1  0.000  0.000  1.000  1.000  0.000  0.000   1.0 |
 |  0.17  0.33  0.00  1  2  1  0.000  0.000  1.000  1.000  0.000  0.000   1.0 |
 |  0.17  0.33  0.00  1  3  1  0.000  0.000  1.000  1.000  0.000  0.000   1.0 |
 |  0.17  0.33  0.14  1  1  1  0.000  0.000  1.000  1.000  0.000  0.000   1.0 |
 |  0.17  0.33  0.14  1  2  1  0.000  0.000  1.000  1.000  0.000  0.000   1.0 |
 |  0.17  0.33  0.14  1  3  1  0.000  0.000  1.000  1.000  0.000  0.000   1.0 |
 |  0.17  0.58  0.00  1  1  1  0.000  0.000  1.000  1.000  0.000  0.000   1.0 |
 |  0.17  0.58  0.00  1  2  1  0.000  0.000  1.000  1.000  0.000  0.000   1.0 |
 |  0.17  0.58  0.00  1  3  1  0.000  0.000  1.000  1.000  0.000  0.000   1.0 |
 |  0.17  0.58  0.14  1  1  1  0.000  0.000  1.000  1.000  0.000  0.000   1.0 |
 |  0.17  0.58  0.14  1  2  1  0.000  0.000  1.000  1.000  0.000  0.000   1.0 |
 |  0.17  0.58  0.14  1  3  1  0.000  0.000  1.000  1.000  0.000  0.000   1.0 |
 +----------------------------------------------------------------------------+
  
                                ------------
                                K-POINT GRID
                                ------------
  
             Grid size =  3 x  3 x  1      Total points =    9
  
 *----------------------------------------------------------------------------*
 | k-point      Fractional Coordinate        Cartesian Coordinate (Ang^-1)    |
 +----------------------------------------------------------------------------+
 |     1    0.00000   0.00000   0.00000   |    0.00000   0.00000   0.00000    |
 |     2    0.00000   0.33333   0.00000   |    0.00000   0.17545   0.00000    |
 |     3    0.00000   0.66667   0.00000   |    0.00000   0.35090   0.00000    |
 |     4    0.33333   0.00000   0.00000   |    0.15194   0.08772   0.00000    |
 |     5    0.33333   0.33333   0.00000   |    0.15194   0.26317   0.00000    |
 |     6    0.33333   0.66667   0.00000   |    0.15194   0.43862   0.00000    |
 |     7    0.66667   0.00000   0.00000   |    0.30388   0.17545   0.00000    |
 |     8    0.66667   0.33333   0.00000   |    0.30388   0.35090   0.00000    |
 |     9    0.66667   0.66667   0.00000   |    0.30388   0.52634   0.00000    |
 *----------------------------------------------------------------------------*
  
  
 *---------------------------------- MAIN ------------------------------------*
 |  Number of Wannier Functions               :               176             |
 |  Number of Objective Wannier Functions     :               176             |
 |  Number of input Bloch states              :               300             |
 |  Output verbosity (1=low, 5=high)          :                 3             |
 |  Timing Level (1=low, 5=high)              :                 1             |
 |  Optimisation (0=memory, 3=speed)          :                 3             |
 |  Length Unit                               :               Ang             |
 |  Post-processing setup (write *.nnkp)      :                 F             |
 |  Using Gamma-only branch of algorithms     :                 F             |
 |  CP code post-processing                   :                 F             |
 |  Wavefunction (UNK) file-type              :       unformatted             |
 |  Wavefunction spin channel                 :                up             |
 *----------------------------------------------------------------------------*
 *------------------------------- WANNIERISE ---------------------------------*
 |  Total number of iterations                :               500             |
 |  Number of CG steps before reset           :                 5             |
 |  Trial step length for line search         :             2.000             |
 |  Convergence tolerence                     :         0.100E-09             |
 |  Convergence window                        :                -1             |
 |  Iterations between writing output         :                50             |
 |  Iterations between backing up to disk     :               100             |
 |  Write r^2_nm to file                      :                 F             |
 |  Write xyz WF centres to file              :                 T             |
 |  Write on-site energies <0n|H|0n> to file  :                 F             |
 |  Use guiding centre to control phases      :                 T             |
 |  Use phases for initial projections        :                 F             |
 |  Iterations before starting guiding centres:                 0             |
 |  Iterations between using guiding centres  :                 1             |
 |  Perform selective localization            :                 F             |
 |  Use constrains in selective localization  :                 F             |
 |  Value of the Lagrange multiplier          :         0.100E+01             |
 *----------------------------------------------------------------------------*
 *------------------------------- DISENTANGLE --------------------------------*
 |  Using band disentanglement                :                 T             |
 |  Total number of iterations                :              4000             |
 |  Mixing ratio                              :             0.500             |
 |  Convergence tolerence                     :         1.000E-10             |
 |  Convergence window                        :                 3             |
 *----------------------------------------------------------------------------*
 *-------------------------------- PLOTTING ----------------------------------*
 |  Plotting Wannier functions                :                 F             |
 |   Size of supercell for plotting           :     2x    2x    2             |
 |   Plotting mode (molecule or crystal)      :           crystal             |
 |   Plotting format                          :          xcrysden             |
 |   Plot radius                              :             3.500             |
 |   Plot scale                               :             1.000             |
 *----------------------------------------------------------------------------*
 |  Plotting Fermi surface                    :                 F             |
 |   Number of plotting points (along b_1)    :                50             |
 |   Plotting format                          :          xcrysden             |
 *----------------------------------------------------------------------------*
 |  Plotting interpolated bandstructure       :                 T             |
 |   Number of K-path sections                :                 3             |
 |   Divisions along first K-path section     :               100             |
 |   Output format                            :           gnuplot             |
 |   Output mode                              :               s-k             |
 *----------------------------------------------------------------------------*
 |   K-space path sections:                                                   |
 |    From: Γ      0.000  0.000  0.000     To: K       0.333  0.333  0.000   |
 |    From: K       0.333  0.333  0.000     To: M       0.500  0.000  0.000   |
 |    From: M       0.500  0.000  0.000     To: Γ      0.000  0.000  0.000   |
 *----------------------------------------------------------------------------*
 |  Plotting Hamiltonian in WF basis          :                 T             |
 *----------------------------------------------------------------------------*
 |  Writing data for Van der Waals post-proc  :                 F             |
 *----------------------------------------------------------------------------*
 *------------------------------- TRANSPORT ----------------------------------*
 |  Transport mode                            :              bulk             |
 |   Hamiltonian from external files          :                 F             |
 |   System extended in                       :              none             |
 |   Centre of the unit cell to which WF are translated (fract. coords):      |
 |                                       0.000000,    0.000000,    0.000000   |
 |  Fermi energy (eV)                         :             0.000             |
 *----------------------------------------------------------------------------*
 Time to read parameters        0.039 (sec)

 *---------------------------------- K-MESH ----------------------------------*
 +----------------------------------------------------------------------------+
 |                    Distance to Nearest-Neighbour Shells                    |
 |                    ------------------------------------                    |
 |          Shell             Distance (Ang^-1)          Multiplicity         |
 |          -----             -----------------          ------------         |
 |             1                   0.175448                      6            |
 |             2                   0.265883                      2            |
 |             3                   0.303884                      6            |
 |             4                   0.318552                     12            |
 |             5                   0.350895                      6            |
 |             6                   0.403781                     12            |
 |             7                   0.440251                     12            |
 |             8                   0.464191                     12            |
 |             9                   0.526343                      6            |
 |            10                   0.531765                      2            |
 |            11                   0.534945                     24            |
 |            12                   0.559961                     12            |
 |            13                   0.589686                     12            |
 |            14                   0.607768                      6            |
 |            15                   0.612470                     12            |
 |            16                   0.632585                     12            |
 |            17                   0.637104                     12            |
 |            18                   0.663382                     12            |
 |            19                   0.686191                     24            |
 |            20                   0.701790                      6            |
 |            21                   0.705866                     24            |
 |            22                   0.748205                     12            |
 |            23                   0.750469                     12            |
 |            24                   0.764758                     12            |
 |            25                   0.797648                      2            |
 |            26                   0.804002                     12            |
 |            27                   0.807562                     12            |
 |            28                   0.809660                     24            |
 |            29                   0.816715                     12            |
 |            30                   0.826401                     24            |
 |            31                   0.846825                     24            |
 |            32                   0.853573                     12            |
 |            33                   0.871418                     12            |
 |            34                   0.877238                      6            |
 |            35                   0.880502                     12            |
 |            36                   0.911652                      6            |
 +----------------------------------------------------------------------------+
 | The b-vectors are chosen automatically                                     |
 | Shell:  1 Multiplicity:  6                                                 |
 | b-vector 1 :        0.000000    0.175448    0.000000      (Ang^-1)         |
 | b-vector 2 :        0.151942    0.087724    0.000000      (Ang^-1)         |
 | b-vector 3 :        0.000000   -0.175448    0.000000      (Ang^-1)         |
 | b-vector 4 :        0.151942   -0.087724    0.000000      (Ang^-1)         |
 | b-vector 5 :       -0.151942   -0.087724    0.000000      (Ang^-1)         |
 | b-vector 6 :       -0.151942    0.087724    0.000000      (Ang^-1)         |
 | Shell:  1 w_b   10.8288937      (Ang^2)                                    |
 | B1 condition is not satisfied: Adding another shell                        |
 | Shell:  2 Multiplicity:  2                                                 |
 | b-vector 1 :        0.000000    0.000000    0.265883      (Ang^-1)         |
 | b-vector 2 :        0.000000    0.000000   -0.265883      (Ang^-1)         |
 | Shell:  1 w_b   10.8288937      (Ang^2)                                    |
 | Shell:  2 w_b    7.0727819      (Ang^2)                                    |
 | The following shells are used:   1,  2                                     |
 +----------------------------------------------------------------------------+
 |                        Shell   # Nearest-Neighbours                        |
 |                        -----   --------------------                        |
 |                          1               6                                 |
 |                          2               2                                 |
 +----------------------------------------------------------------------------+
 | Completeness relation is fully satisfied [Eq. (B1), PRB 56, 12847 (1997)]  |
 +----------------------------------------------------------------------------+
 |                  b_k Vectors (Ang^-1) and Weights (Ang^2)                  |
 |                  ----------------------------------------                  |
 |            No.         b_k(x)      b_k(y)      b_k(z)        w_b           |
 |            ---        --------------------------------     --------        |
 |             1         0.000000    0.175448    0.000000    10.828894        |
 |             2         0.151942    0.087724    0.000000    10.828894        |
 |             3         0.000000   -0.175448    0.000000    10.828894        |
 |             4         0.151942   -0.087724    0.000000    10.828894        |
 |             5        -0.151942   -0.087724    0.000000    10.828894        |
 |             6        -0.151942    0.087724    0.000000    10.828894        |
 |             7         0.000000    0.000000    0.265883     7.072782        |
 |             8         0.000000    0.000000   -0.265883     7.072782        |
 +----------------------------------------------------------------------------+
 |                           b_k Directions (Ang^-1)                          |
 |                           -----------------------                          |
 |            No.           x           y           z                         |
 |            ---        --------------------------------                     |
 |             1         0.000000    0.175448    0.000000                     |
 |             2         0.151942    0.087724    0.000000                     |
 |             3         0.151942   -0.087724    0.000000                     |
 |             4         0.000000    0.000000    0.265883                     |
 +----------------------------------------------------------------------------+
  
 Time to get kmesh              0.027 (sec)
 *============================================================================*
 |                              MEMORY ESTIMATE                               |
 |         Maximum RAM allocated during each phase of the calculation         |
 *============================================================================*
 |                        Disentanglement          151.78 Mb                  |
 |                            Wannierise:           95.30 Mb                  |
 |                                                                            |
 |   N.B. by setting optimisation=0 memory usage will be reduced to:          |
 |                        Disentanglement          146.64 Mb                  |
 |                            Wannierise:           61.27 Mb                  |
 |   However, this will result in more i/o and slow down the calculation      |
 |                          plot_wannier:           95.30 Mb                  |
 *----------------------------------------------------------------------------*
  
 Starting a new Wannier90 calculation ...


 Reading overlaps from 1Fe_initialconf.up.mmn    :  Created on  5Apr2023 at 20:33:43

 Reading projections from 1Fe_initialconf.up.amn :  Created on  5Apr2023 at 20:23:50

 Time to read overlaps         15.813 (sec)

 *------------------------------- DISENTANGLE --------------------------------*
 +----------------------------------------------------------------------------+
 |                              Energy  Windows                               |
 |                              ---------------                               |
 |                   Outer:  -30.00000  to   30.00000  (eV)                   |
 |                   Inner:   -6.00000  to    2.50000  (eV)                   |
 +----------------------------------------------------------------------------+
 |                        K-points with Frozen States                         |
 |                        ---------------------------                         |
 |     1     2     3     4     5     6     7     8     9                      |
 +----------------------------------------------------------------------------+
   Number of target bands to extract:  176
 +----------------------------------------------------------------------------+
 |                                  Windows                                   |
 |                                  -------                                   |
 |               K-point      Ndimwin     Ndimfroz    Nfirstwin               |
 |               ----------------------------------------------               |
 |                   1          236          139          65                  |
 |                   2          236          147          65                  |
 |                   3          236          147          65                  |
 |                   4          236          147          65                  |
 |                   5          236          155          65                  |
 |                   6          236          147          65                  |
 |                   7          236          147          65                  |
 |                   8          236          147          65                  |
 |                   9          236          155          65                  |
 +----------------------------------------------------------------------------+

                   Unitarised projection of Wannier functions                  
                   ------------------------------------------                  
   A_mn = <psi_m|g_n> --> S = A.A^+ --> U = S^-1/2.A
   In dis_project... done
   Using an inner window (linner = T)
   In dis_proj_froz...
 K-point   1 ndimwin: 236 we want the 37 leading eigenvector(s) of QPQ
  lambda(  1)= -0.000000000000
  lambda(  2)= -0.000000000000
  lambda(  3)= -0.000000000000
  lambda(  4)= -0.000000000000
  lambda(  5)= -0.000000000000
  lambda(  6)= -0.000000000000
  lambda(  7)= -0.000000000000
  lambda(  8)= -0.000000000000
  lambda(  9)= -0.000000000000
  lambda( 10)= -0.000000000000
  lambda( 11)= -0.000000000000
  lambda( 12)= -0.000000000000
  lambda( 13)= -0.000000000000
  lambda( 14)= -0.000000000000
  lambda( 15)= -0.000000000000
  lambda( 16)= -0.000000000000
  lambda( 17)= -0.000000000000
  lambda( 18)= -0.000000000000
  lambda( 19)= -0.000000000000
  lambda( 20)= -0.000000000000
  lambda( 21)= -0.000000000000
  lambda( 22)= -0.000000000000
  lambda( 23)= -0.000000000000
  lambda( 24)= -0.000000000000
  lambda( 25)= -0.000000000000
  lambda( 26)= -0.000000000000
  lambda( 27)= -0.000000000000
  lambda( 28)= -0.000000000000
  lambda( 29)= -0.000000000000
  lambda( 30)= -0.000000000000
  lambda( 31)= -0.000000000000
  lambda( 32)= -0.000000000000
  lambda( 33)= -0.000000000000
  lambda( 34)= -0.000000000000
  lambda( 35)= -0.000000000000
  lambda( 36)= -0.000000000000
  lambda( 37)= -0.000000000000
  lambda( 38)= -0.000000000000
  lambda( 39)= -0.000000000000
  lambda( 40)= -0.000000000000
  lambda( 41)= -0.000000000000
  lambda( 42)= -0.000000000000
  lambda( 43)= -0.000000000000
  lambda( 44)= -0.000000000000
  lambda( 45)= -0.000000000000
  lambda( 46)= -0.000000000000
  lambda( 47)= -0.000000000000
  lambda( 48)= -0.000000000000
  lambda( 49)= -0.000000000000
  lambda( 50)= -0.000000000000
  lambda( 51)= -0.000000000000
  lambda( 52)= -0.000000000000
  lambda( 53)= -0.000000000000
  lambda( 54)= -0.000000000000
  lambda( 55)= -0.000000000000
  lambda( 56)= -0.000000000000
  lambda( 57)= -0.000000000000
  lambda( 58)= -0.000000000000
  lambda( 59)= -0.000000000000
  lambda( 60)= -0.000000000000
  lambda( 61)= -0.000000000000
  lambda( 62)= -0.000000000000
  lambda( 63)= -0.000000000000
  lambda( 64)= -0.000000000000
  lambda( 65)= -0.000000000000
  lambda( 66)= -0.000000000000
  lambda( 67)= -0.000000000000
  lambda( 68)= -0.000000000000
  lambda( 69)= -0.000000000000
  lambda( 70)= -0.000000000000
  lambda( 71)=  0.000000000000
  lambda( 72)=  0.000000000000
  lambda( 73)=  0.000000000000
  lambda( 74)=  0.000000000000
  lambda( 75)=  0.000000000000
  lambda( 76)=  0.000000000000
  lambda( 77)=  0.000000000000
  lambda( 78)=  0.000000000000
  lambda( 79)=  0.000000000000
  lambda( 80)=  0.000000000000
  lambda( 81)=  0.000000000000
  lambda( 82)=  0.000000000000
  lambda( 83)=  0.000000000000
  lambda( 84)=  0.000000000000
  lambda( 85)=  0.000000000000
  lambda( 86)=  0.000000000000
  lambda( 87)=  0.000000000000
  lambda( 88)=  0.000000000000
  lambda( 89)=  0.000000000000
  lambda( 90)=  0.000000000000
  lambda( 91)=  0.000000000000
  lambda( 92)=  0.000000000000
  lambda( 93)=  0.000000000000
  lambda( 94)=  0.000000000000
  lambda( 95)=  0.000000000000
  lambda( 96)=  0.000000000000
  lambda( 97)=  0.000000000000
  lambda( 98)=  0.000000000000
  lambda( 99)=  0.000000000000
  lambda(100)=  0.000000000000
  lambda(101)=  0.000000000000
  lambda(102)=  0.000000000000
  lambda(103)=  0.000000000000
  lambda(104)=  0.000000000000
  lambda(105)=  0.000000000000
  lambda(106)=  0.000000000000
  lambda(107)=  0.000000000000
  lambda(108)=  0.000000000000
  lambda(109)=  0.000000000000
  lambda(110)=  0.000000000000
  lambda(111)=  0.000000000000
  lambda(112)=  0.000000000000
  lambda(113)=  0.000000000000
  lambda(114)=  0.000000000000
  lambda(115)=  0.000000000000
  lambda(116)=  0.000000000000
  lambda(117)=  0.000000000000
  lambda(118)=  0.000000000000
  lambda(119)=  0.000000000000
  lambda(120)=  0.000000000000
  lambda(121)=  0.000000000000
  lambda(122)=  0.000000000000
  lambda(123)=  0.000000000000
  lambda(124)=  0.000000000000
  lambda(125)=  0.000000000000
  lambda(126)=  0.000000000000
  lambda(127)=  0.000000000000
  lambda(128)=  0.000000000000
  lambda(129)=  0.000000000000
  lambda(130)=  0.000000000000
  lambda(131)=  0.000000000000
  lambda(132)=  0.000000000000
  lambda(133)=  0.000000000000
  lambda(134)=  0.000000000000
  lambda(135)=  0.000000000000
  lambda(136)=  0.000000000000
  lambda(137)=  0.000000000000
  lambda(138)=  0.000000000000
  lambda(139)=  0.000000000000
  lambda(140)=  0.000000000000
  lambda(141)=  0.000000000000
  lambda(142)=  0.000000000001
  lambda(143)=  0.000000000055
  lambda(144)=  0.000000002006
  lambda(145)=  0.001338575081
  lambda(146)=  0.001338667375
  lambda(147)=  0.001338720023
  lambda(148)=  0.001338791943
  lambda(149)=  0.001338848601
  lambda(150)=  0.001338893789
  lambda(151)=  0.017059029373
  lambda(152)=  0.017059293796
  lambda(153)=  0.017059578431
  lambda(154)=  0.017059605918
  lambda(155)=  0.017059845996
  lambda(156)=  0.017059859176
  lambda(157)=  0.019494249141
  lambda(158)=  0.025609038109
  lambda(159)=  0.025624766007
  lambda(160)=  0.025624881460
  lambda(161)=  0.030456174109
  lambda(162)=  0.030456372435
  lambda(163)=  0.030456967849
  lambda(164)=  0.030457168066
  lambda(165)=  0.030459832842
  lambda(166)=  0.030460507430
  lambda(167)=  0.037150403801
  lambda(168)=  0.037182071484
  lambda(169)=  0.037184042683
  lambda(170)=  0.046516009121
  lambda(171)=  0.110366659077
  lambda(172)=  0.110368499971
  lambda(173)=  0.117033426427
  lambda(174)=  0.117035704335
  lambda(175)=  0.117040479437
  lambda(176)=  0.117040721285
  lambda(177)=  0.117042783859
  lambda(178)=  0.117043149428
  lambda(179)=  0.133309426129
  lambda(180)=  0.133309754301
  lambda(181)=  0.133313300505
  lambda(182)=  0.133313643980
  lambda(183)=  0.133323338391
  lambda(184)=  0.133323711010
  lambda(185)=  0.144127294855
  lambda(186)=  0.144128274421
  lambda(187)=  0.144128857145
  lambda(188)=  0.144129946872
  lambda(189)=  0.145231417154
  lambda(190)=  0.145233067681
  lambda(191)=  0.176715639699
  lambda(192)=  0.176715651965
  lambda(193)=  0.176716856681
  lambda(194)=  0.176716903899
  lambda(195)=  0.176720730301
  lambda(196)=  0.176721967616
  lambda(197)=  0.184147427987
  lambda(198)=  0.184150594265
  lambda(199)=  0.184175892061
  lambda(200)=  1.000000000000
  lambda(201)=  1.000000000000
  lambda(202)=  1.000000000000
  lambda(203)=  1.000000000000
  lambda(204)=  1.000000000000
  lambda(205)=  1.000000000000
  lambda(206)=  1.000000000000
  lambda(207)=  1.000000000000
  lambda(208)=  1.000000000000
  lambda(209)=  1.000000000000
  lambda(210)=  1.000000000000
  lambda(211)=  1.000000000000
  lambda(212)=  1.000000000000
  lambda(213)=  1.000000000000
  lambda(214)=  1.000000000000
  lambda(215)=  1.000000000000
  lambda(216)=  1.000000000000
  lambda(217)=  1.000000000000
  lambda(218)=  1.000000000000
  lambda(219)=  1.000000000000
  lambda(220)=  1.000000000000
  lambda(221)=  1.000000000000
  lambda(222)=  1.000000000000
  lambda(223)=  1.000000000000
  lambda(224)=  1.000000000000
  lambda(225)=  1.000000000000
  lambda(226)=  1.000000000000
  lambda(227)=  1.000000000000
  lambda(228)=  1.000000000000
  lambda(229)=  1.000000000000
  lambda(230)=  1.000000000000
  lambda(231)=  1.000000000000
  lambda(232)=  1.000000000000
  lambda(233)=  1.000000000000
  lambda(234)=  1.000000000000
  lambda(235)=  1.000000000000
  lambda(236)=  1.000000000000

 K-point   2 ndimwin: 236 we want the 29 leading eigenvector(s) of QPQ
  lambda(  1)= -0.000000000000
  lambda(  2)= -0.000000000000
  lambda(  3)= -0.000000000000
  lambda(  4)= -0.000000000000
  lambda(  5)= -0.000000000000
  lambda(  6)= -0.000000000000
  lambda(  7)= -0.000000000000
  lambda(  8)= -0.000000000000
  lambda(  9)= -0.000000000000
  lambda( 10)= -0.000000000000
  lambda( 11)= -0.000000000000
  lambda( 12)= -0.000000000000
  lambda( 13)= -0.000000000000
  lambda( 14)= -0.000000000000
  lambda( 15)= -0.000000000000
  lambda( 16)= -0.000000000000
  lambda( 17)= -0.000000000000
  lambda( 18)= -0.000000000000
  lambda( 19)= -0.000000000000
  lambda( 20)= -0.000000000000
  lambda( 21)= -0.000000000000
  lambda( 22)= -0.000000000000
  lambda( 23)= -0.000000000000
  lambda( 24)= -0.000000000000
  lambda( 25)= -0.000000000000
  lambda( 26)= -0.000000000000
  lambda( 27)= -0.000000000000
  lambda( 28)= -0.000000000000
  lambda( 29)= -0.000000000000
  lambda( 30)= -0.000000000000
  lambda( 31)= -0.000000000000
  lambda( 32)= -0.000000000000
  lambda( 33)= -0.000000000000
  lambda( 34)= -0.000000000000
  lambda( 35)= -0.000000000000
  lambda( 36)= -0.000000000000
  lambda( 37)= -0.000000000000
  lambda( 38)= -0.000000000000
  lambda( 39)= -0.000000000000
  lambda( 40)= -0.000000000000
  lambda( 41)= -0.000000000000
  lambda( 42)= -0.000000000000
  lambda( 43)= -0.000000000000
  lambda( 44)= -0.000000000000
  lambda( 45)= -0.000000000000
  lambda( 46)= -0.000000000000
  lambda( 47)= -0.000000000000
  lambda( 48)= -0.000000000000
  lambda( 49)= -0.000000000000
  lambda( 50)= -0.000000000000
  lambda( 51)= -0.000000000000
  lambda( 52)= -0.000000000000
  lambda( 53)= -0.000000000000
  lambda( 54)= -0.000000000000
  lambda( 55)= -0.000000000000
  lambda( 56)= -0.000000000000
  lambda( 57)= -0.000000000000
  lambda( 58)= -0.000000000000
  lambda( 59)= -0.000000000000
  lambda( 60)= -0.000000000000
  lambda( 61)= -0.000000000000
  lambda( 62)= -0.000000000000
  lambda( 63)= -0.000000000000
  lambda( 64)= -0.000000000000
  lambda( 65)= -0.000000000000
  lambda( 66)= -0.000000000000
  lambda( 67)= -0.000000000000
  lambda( 68)= -0.000000000000
  lambda( 69)= -0.000000000000
  lambda( 70)= -0.000000000000
  lambda( 71)= -0.000000000000
  lambda( 72)= -0.000000000000
  lambda( 73)= -0.000000000000
  lambda( 74)= -0.000000000000
  lambda( 75)=  0.000000000000
  lambda( 76)=  0.000000000000
  lambda( 77)=  0.000000000000
  lambda( 78)=  0.000000000000
  lambda( 79)=  0.000000000000
  lambda( 80)=  0.000000000000
  lambda( 81)=  0.000000000000
  lambda( 82)=  0.000000000000
  lambda( 83)=  0.000000000000
  lambda( 84)=  0.000000000000
  lambda( 85)=  0.000000000000
  lambda( 86)=  0.000000000000
  lambda( 87)=  0.000000000000
  lambda( 88)=  0.000000000000
  lambda( 89)=  0.000000000000
  lambda( 90)=  0.000000000000
  lambda( 91)=  0.000000000000
  lambda( 92)=  0.000000000000
  lambda( 93)=  0.000000000000
  lambda( 94)=  0.000000000000
  lambda( 95)=  0.000000000000
  lambda( 96)=  0.000000000000
  lambda( 97)=  0.000000000000
  lambda( 98)=  0.000000000000
  lambda( 99)=  0.000000000000
  lambda(100)=  0.000000000000
  lambda(101)=  0.000000000000
  lambda(102)=  0.000000000000
  lambda(103)=  0.000000000000
  lambda(104)=  0.000000000000
  lambda(105)=  0.000000000000
  lambda(106)=  0.000000000000
  lambda(107)=  0.000000000000
  lambda(108)=  0.000000000000
  lambda(109)=  0.000000000000
  lambda(110)=  0.000000000000
  lambda(111)=  0.000000000000
  lambda(112)=  0.000000000000
  lambda(113)=  0.000000000000
  lambda(114)=  0.000000000000
  lambda(115)=  0.000000000000
  lambda(116)=  0.000000000000
  lambda(117)=  0.000000000000
  lambda(118)=  0.000000000000
  lambda(119)=  0.000000000000
  lambda(120)=  0.000000000000
  lambda(121)=  0.000000000000
  lambda(122)=  0.000000000000
  lambda(123)=  0.000000000000
  lambda(124)=  0.000000000000
  lambda(125)=  0.000000000000
  lambda(126)=  0.000000000000
  lambda(127)=  0.000000000000
  lambda(128)=  0.000000000000
  lambda(129)=  0.000000000000
  lambda(130)=  0.000000000000
  lambda(131)=  0.000000000000
  lambda(132)=  0.000000000000
  lambda(133)=  0.000000000000
  lambda(134)=  0.000000000000
  lambda(135)=  0.000000000000
  lambda(136)=  0.000000000000
  lambda(137)=  0.000000000000
  lambda(138)=  0.000000000000
  lambda(139)=  0.000000000000
  lambda(140)=  0.000000000000
  lambda(141)=  0.000000000000
  lambda(142)=  0.000000000000
  lambda(143)=  0.000000000000
  lambda(144)=  0.000000000000
  lambda(145)=  0.000000000000
  lambda(146)=  0.000000000000
  lambda(147)=  0.000000000000
  lambda(148)=  0.000000000000
  lambda(149)=  0.000000000001
  lambda(150)=  0.000002838522
  lambda(151)=  0.000009559196
  lambda(152)=  0.000862628238
  lambda(153)=  0.000862652711
  lambda(154)=  0.006245705991
  lambda(155)=  0.009393371568
  lambda(156)=  0.015278605085
  lambda(157)=  0.016260017706
  lambda(158)=  0.016260223897
  lambda(159)=  0.018650618296
  lambda(160)=  0.020499711755
  lambda(161)=  0.020500366123
  lambda(162)=  0.022863786718
  lambda(163)=  0.022865163841
  lambda(164)=  0.023012127083
  lambda(165)=  0.023026805478
  lambda(166)=  0.028034293467
  lambda(167)=  0.036222462705
  lambda(168)=  0.036223855904
  lambda(169)=  0.038836177057
  lambda(170)=  0.040204837877
  lambda(171)=  0.045910169149
  lambda(172)=  0.053899151843
  lambda(173)=  0.062353984230
  lambda(174)=  0.062386278986
  lambda(175)=  0.071135183161
  lambda(176)=  0.071135714750
  lambda(177)=  0.080465606013
  lambda(178)=  0.082033195769
  lambda(179)=  0.082924469130
  lambda(180)=  0.082959370096
  lambda(181)=  0.107580357487
  lambda(182)=  0.107586491097
  lambda(183)=  0.112458858098
  lambda(184)=  0.113604482955
  lambda(185)=  0.113606983225
  lambda(186)=  0.113725838542
  lambda(187)=  0.116431918373
  lambda(188)=  0.121458898853
  lambda(189)=  0.121469989973
  lambda(190)=  0.123736734378
  lambda(191)=  0.123742959913
  lambda(192)=  0.134845181311
  lambda(193)=  0.134847263476
  lambda(194)=  0.141314259032
  lambda(195)=  0.141317412206
  lambda(196)=  0.153912881167
  lambda(197)=  0.153914993158
  lambda(198)=  0.178092961278
  lambda(199)=  0.178103726184
  lambda(200)=  0.198485681944
  lambda(201)=  0.198506092150
  lambda(202)=  0.208438563900
  lambda(203)=  0.208443614907
  lambda(204)=  0.214163678926
  lambda(205)=  0.214173594964
  lambda(206)=  0.221517382896
  lambda(207)=  0.252522970913
  lambda(208)=  1.000000000000
  lambda(209)=  1.000000000000
  lambda(210)=  1.000000000000
  lambda(211)=  1.000000000000
  lambda(212)=  1.000000000000
  lambda(213)=  1.000000000000
  lambda(214)=  1.000000000000
  lambda(215)=  1.000000000000
  lambda(216)=  1.000000000000
  lambda(217)=  1.000000000000
  lambda(218)=  1.000000000000
  lambda(219)=  1.000000000000
  lambda(220)=  1.000000000000
  lambda(221)=  1.000000000000
  lambda(222)=  1.000000000000
  lambda(223)=  1.000000000000
  lambda(224)=  1.000000000000
  lambda(225)=  1.000000000000
  lambda(226)=  1.000000000000
  lambda(227)=  1.000000000000
  lambda(228)=  1.000000000000
  lambda(229)=  1.000000000000
  lambda(230)=  1.000000000000
  lambda(231)=  1.000000000000
  lambda(232)=  1.000000000000
  lambda(233)=  1.000000000000
  lambda(234)=  1.000000000000
  lambda(235)=  1.000000000000
  lambda(236)=  1.000000000000

 K-point   3 ndimwin: 236 we want the 29 leading eigenvector(s) of QPQ
  lambda(  1)= -0.000000000000
  lambda(  2)= -0.000000000000
  lambda(  3)= -0.000000000000
  lambda(  4)= -0.000000000000
  lambda(  5)= -0.000000000000
  lambda(  6)= -0.000000000000
  lambda(  7)= -0.000000000000
  lambda(  8)= -0.000000000000
  lambda(  9)= -0.000000000000
  lambda( 10)= -0.000000000000
  lambda( 11)= -0.000000000000
  lambda( 12)= -0.000000000000
  lambda( 13)= -0.000000000000
  lambda( 14)= -0.000000000000
  lambda( 15)= -0.000000000000
  lambda( 16)= -0.000000000000
  lambda( 17)= -0.000000000000
  lambda( 18)= -0.000000000000
  lambda( 19)= -0.000000000000
  lambda( 20)= -0.000000000000
  lambda( 21)= -0.000000000000
  lambda( 22)= -0.000000000000
  lambda( 23)= -0.000000000000
  lambda( 24)= -0.000000000000
  lambda( 25)= -0.000000000000
  lambda( 26)= -0.000000000000
  lambda( 27)= -0.000000000000
  lambda( 28)= -0.000000000000
  lambda( 29)= -0.000000000000
  lambda( 30)= -0.000000000000
  lambda( 31)= -0.000000000000
  lambda( 32)= -0.000000000000
  lambda( 33)= -0.000000000000
  lambda( 34)= -0.000000000000
  lambda( 35)= -0.000000000000
  lambda( 36)= -0.000000000000
  lambda( 37)= -0.000000000000
  lambda( 38)= -0.000000000000
  lambda( 39)= -0.000000000000
  lambda( 40)= -0.000000000000
  lambda( 41)= -0.000000000000
  lambda( 42)= -0.000000000000
  lambda( 43)= -0.000000000000
  lambda( 44)= -0.000000000000
  lambda( 45)= -0.000000000000
  lambda( 46)= -0.000000000000
  lambda( 47)= -0.000000000000
  lambda( 48)= -0.000000000000
  lambda( 49)= -0.000000000000
  lambda( 50)= -0.000000000000
  lambda( 51)= -0.000000000000
  lambda( 52)= -0.000000000000
  lambda( 53)= -0.000000000000
  lambda( 54)= -0.000000000000
  lambda( 55)= -0.000000000000
  lambda( 56)= -0.000000000000
  lambda( 57)= -0.000000000000
  lambda( 58)= -0.000000000000
  lambda( 59)= -0.000000000000
  lambda( 60)= -0.000000000000
  lambda( 61)= -0.000000000000
  lambda( 62)= -0.000000000000
  lambda( 63)= -0.000000000000
  lambda( 64)= -0.000000000000
  lambda( 65)= -0.000000000000
  lambda( 66)= -0.000000000000
  lambda( 67)= -0.000000000000
  lambda( 68)= -0.000000000000
  lambda( 69)= -0.000000000000
  lambda( 70)= -0.000000000000
  lambda( 71)= -0.000000000000
  lambda( 72)= -0.000000000000
  lambda( 73)= -0.000000000000
  lambda( 74)= -0.000000000000
  lambda( 75)= -0.000000000000
  lambda( 76)=  0.000000000000
  lambda( 77)=  0.000000000000
  lambda( 78)=  0.000000000000
  lambda( 79)=  0.000000000000
  lambda( 80)=  0.000000000000
  lambda( 81)=  0.000000000000
  lambda( 82)=  0.000000000000
  lambda( 83)=  0.000000000000
  lambda( 84)=  0.000000000000
  lambda( 85)=  0.000000000000
  lambda( 86)=  0.000000000000
  lambda( 87)=  0.000000000000
  lambda( 88)=  0.000000000000
  lambda( 89)=  0.000000000000
  lambda( 90)=  0.000000000000
  lambda( 91)=  0.000000000000
  lambda( 92)=  0.000000000000
  lambda( 93)=  0.000000000000
  lambda( 94)=  0.000000000000
  lambda( 95)=  0.000000000000
  lambda( 96)=  0.000000000000
  lambda( 97)=  0.000000000000
  lambda( 98)=  0.000000000000
  lambda( 99)=  0.000000000000
  lambda(100)=  0.000000000000
  lambda(101)=  0.000000000000
  lambda(102)=  0.000000000000
  lambda(103)=  0.000000000000
  lambda(104)=  0.000000000000
  lambda(105)=  0.000000000000
  lambda(106)=  0.000000000000
  lambda(107)=  0.000000000000
  lambda(108)=  0.000000000000
  lambda(109)=  0.000000000000
  lambda(110)=  0.000000000000
  lambda(111)=  0.000000000000
  lambda(112)=  0.000000000000
  lambda(113)=  0.000000000000
  lambda(114)=  0.000000000000
  lambda(115)=  0.000000000000
  lambda(116)=  0.000000000000
  lambda(117)=  0.000000000000
  lambda(118)=  0.000000000000
  lambda(119)=  0.000000000000
  lambda(120)=  0.000000000000
  lambda(121)=  0.000000000000
  lambda(122)=  0.000000000000
  lambda(123)=  0.000000000000
  lambda(124)=  0.000000000000
  lambda(125)=  0.000000000000
  lambda(126)=  0.000000000000
  lambda(127)=  0.000000000000
  lambda(128)=  0.000000000000
  lambda(129)=  0.000000000000
  lambda(130)=  0.000000000000
  lambda(131)=  0.000000000000
  lambda(132)=  0.000000000000
  lambda(133)=  0.000000000000
  lambda(134)=  0.000000000000
  lambda(135)=  0.000000000000
  lambda(136)=  0.000000000000
  lambda(137)=  0.000000000000
  lambda(138)=  0.000000000000
  lambda(139)=  0.000000000000
  lambda(140)=  0.000000000000
  lambda(141)=  0.000000000000
  lambda(142)=  0.000000000000
  lambda(143)=  0.000000000000
  lambda(144)=  0.000000000000
  lambda(145)=  0.000000000000
  lambda(146)=  0.000000000000
  lambda(147)=  0.000000000000
  lambda(148)=  0.000000000000
  lambda(149)=  0.000000000001
  lambda(150)=  0.000002838632
  lambda(151)=  0.000009559358
  lambda(152)=  0.000862629232
  lambda(153)=  0.000862648951
  lambda(154)=  0.006245705186
  lambda(155)=  0.009393363061
  lambda(156)=  0.015278599366
  lambda(157)=  0.016260018655
  lambda(158)=  0.016260220709
  lambda(159)=  0.018650604882
  lambda(160)=  0.020499714948
  lambda(161)=  0.020500342283
  lambda(162)=  0.022863795047
  lambda(163)=  0.022865135824
  lambda(164)=  0.023012126868
  lambda(165)=  0.023026804622
  lambda(166)=  0.028034288334
  lambda(167)=  0.036222468558
  lambda(168)=  0.036223855076
  lambda(169)=  0.038836174499
  lambda(170)=  0.040204833842
  lambda(171)=  0.045910158867
  lambda(172)=  0.053899158097
  lambda(173)=  0.062353984090
  lambda(174)=  0.062386276762
  lambda(175)=  0.071135185881
  lambda(176)=  0.071135715613
  lambda(177)=  0.080465605960
  lambda(178)=  0.082033196329
  lambda(179)=  0.082924479163
  lambda(180)=  0.082959373571
  lambda(181)=  0.107580357350
  lambda(182)=  0.107586491070
  lambda(183)=  0.112458866157
  lambda(184)=  0.113604485747
  lambda(185)=  0.113606985269
  lambda(186)=  0.113725833959
  lambda(187)=  0.116431909965
  lambda(188)=  0.121458898386
  lambda(189)=  0.121469994159
  lambda(190)=  0.123736734530
  lambda(191)=  0.123742960599
  lambda(192)=  0.134845181227
  lambda(193)=  0.134847263686
  lambda(194)=  0.141314260014
  lambda(195)=  0.141317411861
  lambda(196)=  0.153912885952
  lambda(197)=  0.153914996795
  lambda(198)=  0.178092960849
  lambda(199)=  0.178103725863
  lambda(200)=  0.198485675526
  lambda(201)=  0.198506083464
  lambda(202)=  0.208438546649
  lambda(203)=  0.208443634011
  lambda(204)=  0.214163679607
  lambda(205)=  0.214173597083
  lambda(206)=  0.221517383491
  lambda(207)=  0.252522972183
  lambda(208)=  1.000000000000
  lambda(209)=  1.000000000000
  lambda(210)=  1.000000000000
  lambda(211)=  1.000000000000
  lambda(212)=  1.000000000000
  lambda(213)=  1.000000000000
  lambda(214)=  1.000000000000
  lambda(215)=  1.000000000000
  lambda(216)=  1.000000000000
  lambda(217)=  1.000000000000
  lambda(218)=  1.000000000000
  lambda(219)=  1.000000000000
  lambda(220)=  1.000000000000
  lambda(221)=  1.000000000000
  lambda(222)=  1.000000000000
  lambda(223)=  1.000000000000
  lambda(224)=  1.000000000000
  lambda(225)=  1.000000000000
  lambda(226)=  1.000000000000
  lambda(227)=  1.000000000000
  lambda(228)=  1.000000000000
  lambda(229)=  1.000000000000
  lambda(230)=  1.000000000000
  lambda(231)=  1.000000000000
  lambda(232)=  1.000000000000
  lambda(233)=  1.000000000000
  lambda(234)=  1.000000000000
  lambda(235)=  1.000000000000
  lambda(236)=  1.000000000000

 K-point   4 ndimwin: 236 we want the 29 leading eigenvector(s) of QPQ
  lambda(  1)= -0.000000000000
  lambda(  2)= -0.000000000000
  lambda(  3)= -0.000000000000
  lambda(  4)= -0.000000000000
  lambda(  5)= -0.000000000000
  lambda(  6)= -0.000000000000
  lambda(  7)= -0.000000000000
  lambda(  8)= -0.000000000000
  lambda(  9)= -0.000000000000
  lambda( 10)= -0.000000000000
  lambda( 11)= -0.000000000000
  lambda( 12)= -0.000000000000
  lambda( 13)= -0.000000000000
  lambda( 14)= -0.000000000000
  lambda( 15)= -0.000000000000
  lambda( 16)= -0.000000000000
  lambda( 17)= -0.000000000000
  lambda( 18)= -0.000000000000
  lambda( 19)= -0.000000000000
  lambda( 20)= -0.000000000000
  lambda( 21)= -0.000000000000
  lambda( 22)= -0.000000000000
  lambda( 23)= -0.000000000000
  lambda( 24)= -0.000000000000
  lambda( 25)= -0.000000000000
  lambda( 26)= -0.000000000000
  lambda( 27)= -0.000000000000
  lambda( 28)= -0.000000000000
  lambda( 29)= -0.000000000000
  lambda( 30)= -0.000000000000
  lambda( 31)= -0.000000000000
  lambda( 32)= -0.000000000000
  lambda( 33)= -0.000000000000
  lambda( 34)= -0.000000000000
  lambda( 35)= -0.000000000000
  lambda( 36)= -0.000000000000
  lambda( 37)= -0.000000000000
  lambda( 38)= -0.000000000000
  lambda( 39)= -0.000000000000
  lambda( 40)= -0.000000000000
  lambda( 41)= -0.000000000000
  lambda( 42)= -0.000000000000
  lambda( 43)= -0.000000000000
  lambda( 44)= -0.000000000000
  lambda( 45)= -0.000000000000
  lambda( 46)= -0.000000000000
  lambda( 47)= -0.000000000000
  lambda( 48)= -0.000000000000
  lambda( 49)= -0.000000000000
  lambda( 50)= -0.000000000000
  lambda( 51)= -0.000000000000
  lambda( 52)= -0.000000000000
  lambda( 53)= -0.000000000000
  lambda( 54)= -0.000000000000
  lambda( 55)= -0.000000000000
  lambda( 56)= -0.000000000000
  lambda( 57)= -0.000000000000
  lambda( 58)= -0.000000000000
  lambda( 59)= -0.000000000000
  lambda( 60)= -0.000000000000
  lambda( 61)= -0.000000000000
  lambda( 62)= -0.000000000000
  lambda( 63)= -0.000000000000
  lambda( 64)= -0.000000000000
  lambda( 65)= -0.000000000000
  lambda( 66)= -0.000000000000
  lambda( 67)= -0.000000000000
  lambda( 68)= -0.000000000000
  lambda( 69)= -0.000000000000
  lambda( 70)= -0.000000000000
  lambda( 71)= -0.000000000000
  lambda( 72)=  0.000000000000
  lambda( 73)=  0.000000000000
  lambda( 74)=  0.000000000000
  lambda( 75)=  0.000000000000
  lambda( 76)=  0.000000000000
  lambda( 77)=  0.000000000000
  lambda( 78)=  0.000000000000
  lambda( 79)=  0.000000000000
  lambda( 80)=  0.000000000000
  lambda( 81)=  0.000000000000
  lambda( 82)=  0.000000000000
  lambda( 83)=  0.000000000000
  lambda( 84)=  0.000000000000
  lambda( 85)=  0.000000000000
  lambda( 86)=  0.000000000000
  lambda( 87)=  0.000000000000
  lambda( 88)=  0.000000000000
  lambda( 89)=  0.000000000000
  lambda( 90)=  0.000000000000
  lambda( 91)=  0.000000000000
  lambda( 92)=  0.000000000000
  lambda( 93)=  0.000000000000
  lambda( 94)=  0.000000000000
  lambda( 95)=  0.000000000000
  lambda( 96)=  0.000000000000
  lambda( 97)=  0.000000000000
  lambda( 98)=  0.000000000000
  lambda( 99)=  0.000000000000
  lambda(100)=  0.000000000000
  lambda(101)=  0.000000000000
  lambda(102)=  0.000000000000
  lambda(103)=  0.000000000000
  lambda(104)=  0.000000000000
  lambda(105)=  0.000000000000
  lambda(106)=  0.000000000000
  lambda(107)=  0.000000000000
  lambda(108)=  0.000000000000
  lambda(109)=  0.000000000000
  lambda(110)=  0.000000000000
  lambda(111)=  0.000000000000
  lambda(112)=  0.000000000000
  lambda(113)=  0.000000000000
  lambda(114)=  0.000000000000
  lambda(115)=  0.000000000000
  lambda(116)=  0.000000000000
  lambda(117)=  0.000000000000
  lambda(118)=  0.000000000000
  lambda(119)=  0.000000000000
  lambda(120)=  0.000000000000
  lambda(121)=  0.000000000000
  lambda(122)=  0.000000000000
  lambda(123)=  0.000000000000
  lambda(124)=  0.000000000000
  lambda(125)=  0.000000000000
  lambda(126)=  0.000000000000
  lambda(127)=  0.000000000000
  lambda(128)=  0.000000000000
  lambda(129)=  0.000000000000
  lambda(130)=  0.000000000000
  lambda(131)=  0.000000000000
  lambda(132)=  0.000000000000
  lambda(133)=  0.000000000000
  lambda(134)=  0.000000000000
  lambda(135)=  0.000000000000
  lambda(136)=  0.000000000000
  lambda(137)=  0.000000000000
  lambda(138)=  0.000000000000
  lambda(139)=  0.000000000000
  lambda(140)=  0.000000000000
  lambda(141)=  0.000000000000
  lambda(142)=  0.000000000000
  lambda(143)=  0.000000000000
  lambda(144)=  0.000000000000
  lambda(145)=  0.000000000000
  lambda(146)=  0.000000000000
  lambda(147)=  0.000000000000
  lambda(148)=  0.000000000000
  lambda(149)=  0.000000000001
  lambda(150)=  0.000002838571
  lambda(151)=  0.000009559169
  lambda(152)=  0.000862625719
  lambda(153)=  0.000862653536
  lambda(154)=  0.006245705814
  lambda(155)=  0.009393363195
  lambda(156)=  0.015278606759
  lambda(157)=  0.016260018575
  lambda(158)=  0.016260225564
  lambda(159)=  0.018650584844
  lambda(160)=  0.020499693033
  lambda(161)=  0.020500369674
  lambda(162)=  0.022863797368
  lambda(163)=  0.022865127596
  lambda(164)=  0.023012126321
  lambda(165)=  0.023026804787
  lambda(166)=  0.028034307343
  lambda(167)=  0.036222463325
  lambda(168)=  0.036223851152
  lambda(169)=  0.038836173787
  lambda(170)=  0.040204875578
  lambda(171)=  0.045910161895
  lambda(172)=  0.053899147789
  lambda(173)=  0.062353982922
  lambda(174)=  0.062386278004
  lambda(175)=  0.071135186173
  lambda(176)=  0.071135711522
  lambda(177)=  0.080465604678
  lambda(178)=  0.082033195871
  lambda(179)=  0.082924485644
  lambda(180)=  0.082959359416
  lambda(181)=  0.107580357594
  lambda(182)=  0.107586491145
  lambda(183)=  0.112458851652
  lambda(184)=  0.113604480524
  lambda(185)=  0.113606989844
  lambda(186)=  0.113725847263
  lambda(187)=  0.116431942617
  lambda(188)=  0.121458899503
  lambda(189)=  0.121469989386
  lambda(190)=  0.123736742110
  lambda(191)=  0.123742959321
  lambda(192)=  0.134845181184
  lambda(193)=  0.134847263448
  lambda(194)=  0.141314259845
  lambda(195)=  0.141317412050
  lambda(196)=  0.153912882763
  lambda(197)=  0.153914994518
  lambda(198)=  0.178092960482
  lambda(199)=  0.178103725658
  lambda(200)=  0.198485683281
  lambda(201)=  0.198506086089
  lambda(202)=  0.208438553559
  lambda(203)=  0.208443601368
  lambda(204)=  0.214163677676
  lambda(205)=  0.214173597892
  lambda(206)=  0.221517384205
  lambda(207)=  0.252522970743
  lambda(208)=  1.000000000000
  lambda(209)=  1.000000000000
  lambda(210)=  1.000000000000
  lambda(211)=  1.000000000000
  lambda(212)=  1.000000000000
  lambda(213)=  1.000000000000
  lambda(214)=  1.000000000000
  lambda(215)=  1.000000000000
  lambda(216)=  1.000000000000
  lambda(217)=  1.000000000000
  lambda(218)=  1.000000000000
  lambda(219)=  1.000000000000
  lambda(220)=  1.000000000000
  lambda(221)=  1.000000000000
  lambda(222)=  1.000000000000
  lambda(223)=  1.000000000000
  lambda(224)=  1.000000000000
  lambda(225)=  1.000000000000
  lambda(226)=  1.000000000000
  lambda(227)=  1.000000000000
  lambda(228)=  1.000000000000
  lambda(229)=  1.000000000000
  lambda(230)=  1.000000000000
  lambda(231)=  1.000000000000
  lambda(232)=  1.000000000000
  lambda(233)=  1.000000000000
  lambda(234)=  1.000000000000
  lambda(235)=  1.000000000000
  lambda(236)=  1.000000000000

 K-point   5 ndimwin: 236 we want the 21 leading eigenvector(s) of QPQ
  lambda(  1)= -0.000000000000
  lambda(  2)= -0.000000000000
  lambda(  3)= -0.000000000000
  lambda(  4)= -0.000000000000
  lambda(  5)= -0.000000000000
  lambda(  6)= -0.000000000000
  lambda(  7)= -0.000000000000
  lambda(  8)= -0.000000000000
  lambda(  9)= -0.000000000000
  lambda( 10)= -0.000000000000
  lambda( 11)= -0.000000000000
  lambda( 12)= -0.000000000000
  lambda( 13)= -0.000000000000
  lambda( 14)= -0.000000000000
  lambda( 15)= -0.000000000000
  lambda( 16)= -0.000000000000
  lambda( 17)= -0.000000000000
  lambda( 18)= -0.000000000000
  lambda( 19)= -0.000000000000
  lambda( 20)= -0.000000000000
  lambda( 21)= -0.000000000000
  lambda( 22)= -0.000000000000
  lambda( 23)= -0.000000000000
  lambda( 24)= -0.000000000000
  lambda( 25)= -0.000000000000
  lambda( 26)= -0.000000000000
  lambda( 27)= -0.000000000000
  lambda( 28)= -0.000000000000
  lambda( 29)= -0.000000000000
  lambda( 30)= -0.000000000000
  lambda( 31)= -0.000000000000
  lambda( 32)= -0.000000000000
  lambda( 33)= -0.000000000000
  lambda( 34)= -0.000000000000
  lambda( 35)= -0.000000000000
  lambda( 36)= -0.000000000000
  lambda( 37)= -0.000000000000
  lambda( 38)= -0.000000000000
  lambda( 39)= -0.000000000000
  lambda( 40)= -0.000000000000
  lambda( 41)= -0.000000000000
  lambda( 42)= -0.000000000000
  lambda( 43)= -0.000000000000
  lambda( 44)= -0.000000000000
  lambda( 45)= -0.000000000000
  lambda( 46)= -0.000000000000
  lambda( 47)= -0.000000000000
  lambda( 48)= -0.000000000000
  lambda( 49)= -0.000000000000
  lambda( 50)= -0.000000000000
  lambda( 51)= -0.000000000000
  lambda( 52)= -0.000000000000
  lambda( 53)= -0.000000000000
  lambda( 54)= -0.000000000000
  lambda( 55)= -0.000000000000
  lambda( 56)= -0.000000000000
  lambda( 57)= -0.000000000000
  lambda( 58)= -0.000000000000
  lambda( 59)= -0.000000000000
  lambda( 60)= -0.000000000000
  lambda( 61)= -0.000000000000
  lambda( 62)= -0.000000000000
  lambda( 63)= -0.000000000000
  lambda( 64)= -0.000000000000
  lambda( 65)= -0.000000000000
  lambda( 66)= -0.000000000000
  lambda( 67)= -0.000000000000
  lambda( 68)= -0.000000000000
  lambda( 69)= -0.000000000000
  lambda( 70)= -0.000000000000
  lambda( 71)= -0.000000000000
  lambda( 72)= -0.000000000000
  lambda( 73)= -0.000000000000
  lambda( 74)= -0.000000000000
  lambda( 75)= -0.000000000000
  lambda( 76)= -0.000000000000
  lambda( 77)= -0.000000000000
  lambda( 78)= -0.000000000000
  lambda( 79)= -0.000000000000
  lambda( 80)=  0.000000000000
  lambda( 81)=  0.000000000000
  lambda( 82)=  0.000000000000
  lambda( 83)=  0.000000000000
  lambda( 84)=  0.000000000000
  lambda( 85)=  0.000000000000
  lambda( 86)=  0.000000000000
  lambda( 87)=  0.000000000000
  lambda( 88)=  0.000000000000
  lambda( 89)=  0.000000000000
  lambda( 90)=  0.000000000000
  lambda( 91)=  0.000000000000
  lambda( 92)=  0.000000000000
  lambda( 93)=  0.000000000000
  lambda( 94)=  0.000000000000
  lambda( 95)=  0.000000000000
  lambda( 96)=  0.000000000000
  lambda( 97)=  0.000000000000
  lambda( 98)=  0.000000000000
  lambda( 99)=  0.000000000000
  lambda(100)=  0.000000000000
  lambda(101)=  0.000000000000
  lambda(102)=  0.000000000000
  lambda(103)=  0.000000000000
  lambda(104)=  0.000000000000
  lambda(105)=  0.000000000000
  lambda(106)=  0.000000000000
  lambda(107)=  0.000000000000
  lambda(108)=  0.000000000000
  lambda(109)=  0.000000000000
  lambda(110)=  0.000000000000
  lambda(111)=  0.000000000000
  lambda(112)=  0.000000000000
  lambda(113)=  0.000000000000
  lambda(114)=  0.000000000000
  lambda(115)=  0.000000000000
  lambda(116)=  0.000000000000
  lambda(117)=  0.000000000000
  lambda(118)=  0.000000000000
  lambda(119)=  0.000000000000
  lambda(120)=  0.000000000000
  lambda(121)=  0.000000000000
  lambda(122)=  0.000000000000
  lambda(123)=  0.000000000000
  lambda(124)=  0.000000000000
  lambda(125)=  0.000000000000
  lambda(126)=  0.000000000000
  lambda(127)=  0.000000000000
  lambda(128)=  0.000000000000
  lambda(129)=  0.000000000000
  lambda(130)=  0.000000000000
  lambda(131)=  0.000000000000
  lambda(132)=  0.000000000000
  lambda(133)=  0.000000000000
  lambda(134)=  0.000000000000
  lambda(135)=  0.000000000000
  lambda(136)=  0.000000000000
  lambda(137)=  0.000000000000
  lambda(138)=  0.000000000000
  lambda(139)=  0.000000000000
  lambda(140)=  0.000000000000
  lambda(141)=  0.000000000000
  lambda(142)=  0.000000000000
  lambda(143)=  0.000000000000
  lambda(144)=  0.000000000000
  lambda(145)=  0.000000000000
  lambda(146)=  0.000000000000
  lambda(147)=  0.000000000000
  lambda(148)=  0.000000000000
  lambda(149)=  0.000000000000
  lambda(150)=  0.000000000000
  lambda(151)=  0.000000000000
  lambda(152)=  0.000000000000
  lambda(153)=  0.000000000000
  lambda(154)=  0.000000000000
  lambda(155)=  0.000000000000
  lambda(156)=  0.000000487701
  lambda(157)=  0.000000487952
  lambda(158)=  0.000000488010
  lambda(159)=  0.010650323687
  lambda(160)=  0.010650340417
  lambda(161)=  0.010650648135
  lambda(162)=  0.021635563045
  lambda(163)=  0.021635844872
  lambda(164)=  0.021636924052
  lambda(165)=  0.022282822813
  lambda(166)=  0.022282859372
  lambda(167)=  0.022283091695
  lambda(168)=  0.023516600218
  lambda(169)=  0.023517091690
  lambda(170)=  0.023517670406
  lambda(171)=  0.039229491001
  lambda(172)=  0.039229692103
  lambda(173)=  0.039230003865
  lambda(174)=  0.054799693150
  lambda(175)=  0.054838971849
  lambda(176)=  0.054840005144
  lambda(177)=  0.063398089044
  lambda(178)=  0.063402048542
  lambda(179)=  0.063421711177
  lambda(180)=  0.063423631023
  lambda(181)=  0.063426700439
  lambda(182)=  0.063429530758
  lambda(183)=  0.085248879572
  lambda(184)=  0.087979010092
  lambda(185)=  0.087982335856
  lambda(186)=  0.087982420128
  lambda(187)=  0.102971385094
  lambda(188)=  0.102989235203
  lambda(189)=  0.102990521037
  lambda(190)=  0.103342193401
  lambda(191)=  0.108977893273
  lambda(192)=  0.108980431147
  lambda(193)=  0.108987032778
  lambda(194)=  0.108987449684
  lambda(195)=  0.108990046011
  lambda(196)=  0.108990993816
  lambda(197)=  0.113312465774
  lambda(198)=  0.113313308656
  lambda(199)=  0.113315148837
  lambda(200)=  0.131557453010
  lambda(201)=  0.131559280238
  lambda(202)=  0.131561049647
  lambda(203)=  0.154250755809
  lambda(204)=  0.200989131739
  lambda(205)=  0.200992706651
  lambda(206)=  0.200993928973
  lambda(207)=  0.219500130552
  lambda(208)=  0.219500397373
  lambda(209)=  0.219511396436
  lambda(210)=  0.238193496912
  lambda(211)=  0.238193605969
  lambda(212)=  0.238194393987
  lambda(213)=  0.238194844709
  lambda(214)=  0.238196667305
  lambda(215)=  0.238197391656
  lambda(216)=  1.000000000000
  lambda(217)=  1.000000000000
  lambda(218)=  1.000000000000
  lambda(219)=  1.000000000000
  lambda(220)=  1.000000000000
  lambda(221)=  1.000000000000
  lambda(222)=  1.000000000000
  lambda(223)=  1.000000000000
  lambda(224)=  1.000000000000
  lambda(225)=  1.000000000000
  lambda(226)=  1.000000000000
  lambda(227)=  1.000000000000
  lambda(228)=  1.000000000000
  lambda(229)=  1.000000000000
  lambda(230)=  1.000000000000
  lambda(231)=  1.000000000000
  lambda(232)=  1.000000000000
  lambda(233)=  1.000000000000
  lambda(234)=  1.000000000000
  lambda(235)=  1.000000000000
  lambda(236)=  1.000000000000

 K-point   6 ndimwin: 236 we want the 29 leading eigenvector(s) of QPQ
  lambda(  1)= -0.000000000000
  lambda(  2)= -0.000000000000
  lambda(  3)= -0.000000000000
[...]
  WF centre and spread   81  (  1.722886,  0.988679, -0.086917 )     2.18629301
  WF centre and spread   82  (  1.723060,  0.972253,  0.052633 )     2.08938585
  WF centre and spread   83  (  1.723030,  1.022902,  0.052530 )     2.09016705
  WF centre and spread   84  (  1.722886,  0.988679,  3.441221 )     2.18629178
  WF centre and spread   85  (  1.723060,  0.972253,  3.301671 )     2.08938524
  WF centre and spread   86  (  1.723030,  1.022902,  3.301774 )     2.09016645
  WF centre and spread   87  (  5.169078,  0.989011, -0.086937 )     2.18605050
  WF centre and spread   88  (  5.169045,  0.972231,  0.052728 )     2.08937475
  WF centre and spread   89  (  5.169054,  1.022829,  0.052555 )     2.09001342
  WF centre and spread   90  (  5.169078,  0.989011,  3.441241 )     2.18604939
  WF centre and spread   91  (  5.169045,  0.972231,  3.301576 )     2.08937431
  WF centre and spread   92  (  5.169054,  1.022829,  3.301749 )     2.09001304
  WF centre and spread   93  (  8.615065,  0.988765, -0.086936 )     2.18586042
  WF centre and spread   94  (  8.615100,  0.972230,  0.052737 )     2.08936287
  WF centre and spread   95  (  8.615118,  1.022881,  0.052579 )     2.09013383
  WF centre and spread   96  (  8.615065,  0.988765,  3.441241 )     2.18585933
  WF centre and spread   97  (  8.615100,  0.972230,  3.301567 )     2.08936243
  WF centre and spread   98  (  8.615118,  1.022881,  3.301726 )     2.09013345
  WF centre and spread   99  ( 12.061222,  0.988605, -0.086898 )     2.18661672
  WF centre and spread  100  ( 12.061127,  0.972237,  0.052716 )     2.08938672
  WF centre and spread  101  ( 12.061154,  1.022904,  0.052448 )     2.09023224
  WF centre and spread  102  ( 12.061222,  0.988605,  3.441202 )     2.18661548
  WF centre and spread  103  ( 12.061127,  0.972237,  3.301588 )     2.08938613
  WF centre and spread  104  ( 12.061154,  1.022904,  3.301856 )     2.09023165
  WF centre and spread  105  ( 10.337974,  3.973231, -0.086928 )     2.18602621
  WF centre and spread  106  ( 10.338155,  3.956616,  0.052631 )     2.08946339
  WF centre and spread  107  ( 10.338147,  4.007229,  0.052601 )     2.09016384
  WF centre and spread  108  ( 10.337974,  3.973231,  3.441232 )     2.18602512
  WF centre and spread  109  ( 10.338155,  3.956616,  3.301673 )     2.08946299
  WF centre and spread  110  ( 10.338147,  4.007229,  3.301704 )     2.09016338
  WF centre and spread  111  (  8.614984,  6.957524, -0.086902 )     2.18617292
  WF centre and spread  112  (  8.615139,  6.940965,  0.052638 )     2.08931123
  WF centre and spread  113  (  8.615090,  6.991588,  0.052566 )     2.09030723
  WF centre and spread  114  (  8.614984,  6.957524,  3.441207 )     2.18617182
  WF centre and spread  115  (  8.615139,  6.940965,  3.301666 )     2.08931082
  WF centre and spread  116  (  8.615090,  6.991588,  3.301738 )     2.09030681
  WF centre and spread  117  (  6.891960,  9.941844, -0.086915 )     2.18605660
  WF centre and spread  118  (  6.892102,  9.925348,  0.052565 )     2.08947821
  WF centre and spread  119  (  6.892077,  9.975971,  0.052428 )     2.09002394
  WF centre and spread  120  (  6.891960,  9.941844,  3.441219 )     2.18605537
  WF centre and spread  121  (  6.892102,  9.925348,  3.301739 )     2.08947761
  WF centre and spread  122  (  6.892077,  9.975971,  3.301876 )     2.09002334
  WF centre and spread  123  (  3.446136,  9.941991, -0.086923 )     2.18609024
  WF centre and spread  124  (  3.446014,  9.925334,  0.052538 )     2.08922936
  WF centre and spread  125  (  3.446069,  9.975936,  0.052519 )     2.09018565
  WF centre and spread  126  (  3.446136,  9.941992,  3.441227 )     2.18608941
  WF centre and spread  127  (  3.446014,  9.925334,  3.301766 )     2.08922921
  WF centre and spread  128  (  3.446069,  9.975936,  3.301786 )     2.09018554
  WF centre and spread  129  ( -0.000009,  9.941795, -0.086954 )     2.18597814
  WF centre and spread  130  (  0.000010,  9.925301,  0.052686 )     2.08924449
  WF centre and spread  131  (  0.000009,  9.975994,  0.052451 )     2.08998881
  WF centre and spread  132  ( -0.000009,  9.941795,  3.441258 )     2.18597740
  WF centre and spread  133  (  0.000010,  9.925302,  3.301618 )     2.08924443
  WF centre and spread  134  (  0.000009,  9.975994,  3.301853 )     2.08998882
  WF centre and spread  135  ( -3.446110,  9.941960, -0.086933 )     2.18579865
  WF centre and spread  136  ( -3.446044,  9.925307,  0.052715 )     2.08927293
  WF centre and spread  137  ( -3.446057,  9.975937,  0.052543 )     2.09021697
  WF centre and spread  138  ( -3.446110,  9.941960,  3.441237 )     2.18579781
  WF centre and spread  139  ( -3.446044,  9.925307,  3.301589 )     2.08927277
  WF centre and spread  140  ( -3.446057,  9.975937,  3.301761 )     2.09021686
  WF centre and spread  141  (  6.891917,  3.973406, -0.086937 )     2.18610913
  WF centre and spread  142  (  6.892117,  3.956612,  0.052417 )     2.08903805
  WF centre and spread  143  (  6.892084,  4.007178,  0.052545 )     2.09020191
  WF centre and spread  144  (  6.891917,  3.973406,  3.441241 )     2.18610804
  WF centre and spread  145  (  6.892117,  3.956612,  3.301887 )     2.08903767
  WF centre and spread  146  (  6.892084,  4.007178,  3.301760 )     2.09020152
  WF centre and spread  147  (  5.169148,  6.957498, -0.086908 )     2.18592257
  WF centre and spread  148  (  5.169032,  6.940966,  0.052715 )     2.08946781
  WF centre and spread  149  (  5.169081,  6.991583,  0.052425 )     2.09012686
  WF centre and spread  150  (  5.169148,  6.957498,  3.441212 )     2.18592149
  WF centre and spread  151  (  5.169032,  6.940966,  3.301589 )     2.08946739
  WF centre and spread  152  (  5.169081,  6.991583,  3.301879 )     2.09012643
  WF centre and spread  153  (  1.723105,  6.957651, -0.086908 )     2.18623781
  WF centre and spread  154  (  1.722975,  6.940965,  0.052760 )     2.08948569
  WF centre and spread  155  (  1.723010,  6.991570,  0.052580 )     2.09019665
  WF centre and spread  156  (  1.723105,  6.957651,  3.441212 )     2.18623708
  WF centre and spread  157  (  1.722975,  6.940964,  3.301544 )     2.08948569
  WF centre and spread  158  (  1.723010,  6.991570,  3.301724 )     2.09019663
  WF centre and spread  159  (  3.446241,  3.973112, -0.086933 )     2.18607131
  WF centre and spread  160  (  3.446002,  3.956612,  0.052496 )     2.08919327
  WF centre and spread  161  (  3.446054,  4.007255,  0.052588 )     2.09023693
  WF centre and spread  162  (  3.446241,  3.973112,  3.441237 )     2.18607023
  WF centre and spread  163  (  3.446003,  3.956612,  3.301809 )     2.08919289
  WF centre and spread  164  (  3.446054,  4.007255,  3.301716 )     2.09023649
  WF centre and spread  165  (  0.000014,  3.973285, -0.086913 )     2.18626901
  WF centre and spread  166  ( -0.000019,  3.956599,  0.052775 )     2.08947669
  WF centre and spread  167  ( -0.000016,  4.007195,  0.052510 )     2.09025174
  WF centre and spread  168  (  0.000014,  3.973285,  3.441217 )     2.18626819
  WF centre and spread  169  ( -0.000019,  3.956599,  3.301529 )     2.08947661
  WF centre and spread  170  ( -0.000016,  4.007195,  3.301794 )     2.09025158
  WF centre and spread  171  ( -1.723156,  6.957547, -0.086926 )     2.18651774
  WF centre and spread  172  ( -1.722986,  6.940968,  0.052691 )     2.08941958
  WF centre and spread  173  ( -1.722997,  6.991600,  0.052399 )     2.08998356
  WF centre and spread  174  ( -1.723156,  6.957547,  3.441230 )     2.18651698
  WF centre and spread  175  ( -1.722986,  6.940968,  3.301613 )     2.08941957
  WF centre and spread  176  ( -1.722997,  6.991600,  3.301905 )     2.08998352
  Sum of centres and spreads (620.288208,883.377063,295.178762 )   356.73944824
 
         Spreads (Ang^2)       Omega I      =   336.205990837
        ================       Omega D      =     0.000297557
                               Omega OD     =    20.533400086
    Final Spread (Ang^2)       Omega Total  =   356.739688481
 ------------------------------------------------------------------------------
 Final centres (translated to home cell for writing xyz file)
  WF centre    1  ( -0.000020, -0.008772,  1.677152 )
  WF centre    2  (  0.000007,  0.041099,  1.677152 )
  WF centre    3  (  0.000000, -0.041394,  1.677152 )
  WF centre    4  (  0.000126,  0.133785,  1.677152 )
  WF centre    5  (  0.000187, -0.123195,  1.677152 )
  WF centre    6  (  3.445954, -0.008779,  1.677152 )
  WF centre    7  (  3.446039,  0.041092,  1.677152 )
  WF centre    8  (  3.446047, -0.041394,  1.677152 )
  WF centre    9  (  3.446039,  0.133756,  1.677152 )
  WF centre   10  (  3.446264, -0.123600,  1.677152 )
  WF centre   11  (  6.892141, -0.008776,  1.677152 )
  WF centre   12  (  6.892090,  0.041093,  1.677152 )
  WF centre   13  (  6.892084, -0.041395,  1.677152 )
  WF centre   14  (  6.892089,  0.133927,  1.677152 )
  WF centre   15  (  6.891990, -0.123620,  1.677152 )
  WF centre   16  ( 10.338206, -0.008791,  1.677152 )
  WF centre   17  ( 10.338136,  0.041095,  1.677152 )
  WF centre   18  ( 10.338124, -0.041394,  1.677152 )
  WF centre   19  ( 10.338049,  0.133834,  1.677152 )
  WF centre   20  ( 10.338029, -0.123312,  1.677152 )
  WF centre   21  (  8.615121,  2.975607,  1.677152 )
  WF centre   22  (  8.615112,  3.025453,  1.677152 )
  WF centre   23  (  8.615109,  2.942974,  1.677152 )
  WF centre   24  (  8.615168,  3.118193,  1.677152 )
  WF centre   25  (  8.615304,  2.860733,  1.677152 )
  WF centre   26  (  6.892075,  5.959970,  1.677152 )
  WF centre   27  (  6.892090,  6.009820,  1.677152 )
  WF centre   28  (  6.892085,  5.927327,  1.677152 )
  WF centre   29  (  6.892203,  6.102300,  1.677152 )
  WF centre   30  (  6.892184,  5.845409,  1.677152 )
  WF centre   31  (  5.169113,  8.944339,  1.677152 )
  WF centre   32  (  5.169069,  8.994178,  1.677152 )
  WF centre   33  (  5.169063,  8.911689,  1.677152 )
  WF centre   34  (  5.169052,  9.086622,  1.677152 )
  WF centre   35  (  5.169075,  8.829588,  1.677152 )
  WF centre   36  (  1.723035,  8.944305,  1.677152 )
  WF centre   37  (  1.723030,  8.994174,  1.677152 )
  WF centre   38  (  1.723019,  8.911695,  1.677152 )
  WF centre   39  (  1.723051,  9.086887,  1.677152 )
  WF centre   40  (  1.723152,  8.829576,  1.677152 )
  WF centre   41  ( -1.723001,  8.944294,  1.677152 )
  WF centre   42  ( -1.723015,  8.994175,  1.677152 )
  WF centre   43  ( -1.723022,  8.911692,  1.677152 )
  WF centre   44  ( -1.722967,  9.087018,  1.677152 )
  WF centre   45  ( -1.722990,  8.829581,  1.677152 )
  WF centre   46  ( -5.169123,  8.944320,  1.677152 )
  WF centre   47  ( -5.169068,  8.994177,  1.677152 )
  WF centre   48  ( -5.169061,  8.911692,  1.677152 )
  WF centre   49  ( -5.169092,  9.086796,  1.677152 )
  WF centre   50  ( -5.168989,  8.829632,  1.677152 )
  WF centre   51  (  5.169028,  2.975624,  1.677152 )
  WF centre   52  (  5.169066,  3.025455,  1.677152 )
  WF centre   53  (  5.169065,  2.942972,  1.677152 )
  WF centre   54  (  5.169031,  3.117986,  1.677152 )
  WF centre   55  (  5.169193,  2.860790,  1.677152 )
  WF centre   56  (  3.446114,  5.959959,  1.677152 )
  WF centre   57  (  3.446044,  6.009818,  1.677152 )
  WF centre   58  (  3.446040,  5.927332,  1.677152 )
  WF centre   59  (  3.445906,  6.102565,  1.677152 )
  WF centre   60  (  3.445814,  5.845365,  1.677152 )
  WF centre   61  ( -0.000019,  5.959942,  1.677152 )
  WF centre   62  (  0.000000,  6.009813,  1.677152 )
  WF centre   63  (  0.000002,  5.927330,  1.677152 )
  WF centre   64  (  0.000032,  6.102361,  1.677152 )
  WF centre   65  (  0.000093,  5.845112,  1.677152 )
  WF centre   66  (  1.723064,  2.975585,  1.677152 )
  WF centre   67  (  1.723029,  3.025455,  1.677152 )
  WF centre   68  (  1.723018,  2.942975,  1.677152 )
  WF centre   69  (  1.723169,  3.118319,  1.677152 )
  WF centre   70  (  1.722921,  2.860924,  1.677152 )
  WF centre   71  ( -1.723019,  2.975592,  1.677152 )
  WF centre   72  ( -1.723020,  3.025454,  1.677152 )
  WF centre   73  ( -1.723021,  2.942970,  1.677152 )
  WF centre   74  ( -1.723154,  3.118111,  1.677152 )
  WF centre   75  ( -1.722993,  2.860764,  1.677152 )
  WF centre   76  ( -3.446060,  5.959952,  1.677152 )
  WF centre   77  ( -3.446034,  6.009817,  1.677152 )
  WF centre   78  ( -3.446042,  5.927334,  1.677152 )
  WF centre   79  ( -3.446007,  6.102555,  1.677152 )
  WF centre   80  ( -3.445794,  5.845360,  1.677152 )
  WF centre   81  (  1.722886,  0.988679, -0.086917 )
  WF centre   82  (  1.723060,  0.972253,  0.052633 )
  WF centre   83  (  1.723030,  1.022902,  0.052530 )
  WF centre   84  (  1.722886,  0.988679,  3.441221 )
  WF centre   85  (  1.723060,  0.972253,  3.301671 )
  WF centre   86  (  1.723030,  1.022902,  3.301774 )
  WF centre   87  (  5.169078,  0.989011, -0.086937 )
  WF centre   88  (  5.169045,  0.972231,  0.052728 )
  WF centre   89  (  5.169054,  1.022829,  0.052555 )
  WF centre   90  (  5.169078,  0.989011,  3.441241 )
  WF centre   91  (  5.169045,  0.972231,  3.301576 )
  WF centre   92  (  5.169054,  1.022829,  3.301749 )
  WF centre   93  (  8.615065,  0.988765, -0.086936 )
  WF centre   94  (  8.615100,  0.972230,  0.052737 )
  WF centre   95  (  8.615118,  1.022881,  0.052579 )
  WF centre   96  (  8.615065,  0.988765,  3.441241 )
  WF centre   97  (  8.615100,  0.972230,  3.301567 )
  WF centre   98  (  8.615118,  1.022881,  3.301726 )
  WF centre   99  ( 12.061222,  0.988605, -0.086898 )
  WF centre  100  ( 12.061127,  0.972237,  0.052716 )
  WF centre  101  ( 12.061154,  1.022904,  0.052448 )
  WF centre  102  ( 12.061222,  0.988605,  3.441202 )
  WF centre  103  ( 12.061127,  0.972237,  3.301588 )
  WF centre  104  ( 12.061154,  1.022904,  3.301856 )
  WF centre  105  ( 10.337974,  3.973231, -0.086928 )
  WF centre  106  ( 10.338155,  3.956616,  0.052631 )
  WF centre  107  ( 10.338147,  4.007229,  0.052601 )
  WF centre  108  ( 10.337974,  3.973231,  3.441232 )
  WF centre  109  ( 10.338155,  3.956616,  3.301673 )
  WF centre  110  ( 10.338147,  4.007229,  3.301704 )
  WF centre  111  (  8.614984,  6.957524, -0.086902 )
  WF centre  112  (  8.615139,  6.940965,  0.052638 )
  WF centre  113  (  8.615090,  6.991588,  0.052566 )
  WF centre  114  (  8.614984,  6.957524,  3.441207 )
  WF centre  115  (  8.615139,  6.940965,  3.301666 )
  WF centre  116  (  8.615090,  6.991588,  3.301738 )
  WF centre  117  (  6.891960,  9.941844, -0.086915 )
  WF centre  118  (  6.892102,  9.925348,  0.052565 )
  WF centre  119  (  6.892077,  9.975971,  0.052428 )
  WF centre  120  (  6.891960,  9.941844,  3.441219 )
  WF centre  121  (  6.892102,  9.925348,  3.301739 )
  WF centre  122  (  6.892077,  9.975971,  3.301876 )
  WF centre  123  (  3.446136,  9.941991, -0.086923 )
  WF centre  124  (  3.446014,  9.925334,  0.052538 )
  WF centre  125  (  3.446069,  9.975936,  0.052519 )
  WF centre  126  (  3.446136,  9.941992,  3.441227 )
  WF centre  127  (  3.446014,  9.925334,  3.301766 )
  WF centre  128  (  3.446069,  9.975936,  3.301786 )
  WF centre  129  ( -0.000009,  9.941795, -0.086954 )
  WF centre  130  (  0.000010,  9.925301,  0.052686 )
  WF centre  131  (  0.000009,  9.975994,  0.052451 )
  WF centre  132  ( -0.000009,  9.941795,  3.441258 )
  WF centre  133  (  0.000010,  9.925302,  3.301618 )
  WF centre  134  (  0.000009,  9.975994,  3.301853 )
  WF centre  135  ( -3.446110,  9.941960, -0.086933 )
  WF centre  136  ( -3.446044,  9.925307,  0.052715 )
  WF centre  137  ( -3.446057,  9.975937,  0.052543 )
  WF centre  138  ( -3.446110,  9.941960,  3.441237 )
  WF centre  139  ( -3.446044,  9.925307,  3.301589 )
  WF centre  140  ( -3.446057,  9.975937,  3.301761 )
  WF centre  141  (  6.891917,  3.973406, -0.086937 )
  WF centre  142  (  6.892117,  3.956612,  0.052417 )
  WF centre  143  (  6.892084,  4.007178,  0.052545 )
  WF centre  144  (  6.891917,  3.973406,  3.441241 )
  WF centre  145  (  6.892117,  3.956612,  3.301887 )
  WF centre  146  (  6.892084,  4.007178,  3.301760 )
  WF centre  147  (  5.169148,  6.957498, -0.086908 )
  WF centre  148  (  5.169032,  6.940966,  0.052715 )
  WF centre  149  (  5.169081,  6.991583,  0.052425 )
  WF centre  150  (  5.169148,  6.957498,  3.441212 )
  WF centre  151  (  5.169032,  6.940966,  3.301589 )
  WF centre  152  (  5.169081,  6.991583,  3.301879 )
  WF centre  153  (  1.723105,  6.957651, -0.086908 )
  WF centre  154  (  1.722975,  6.940965,  0.052760 )
  WF centre  155  (  1.723010,  6.991570,  0.052580 )
  WF centre  156  (  1.723105,  6.957651,  3.441212 )
  WF centre  157  (  1.722975,  6.940964,  3.301544 )
  WF centre  158  (  1.723010,  6.991570,  3.301724 )
  WF centre  159  (  3.446241,  3.973112, -0.086933 )
  WF centre  160  (  3.446002,  3.956612,  0.052496 )
  WF centre  161  (  3.446054,  4.007255,  0.052588 )
  WF centre  162  (  3.446241,  3.973112,  3.441237 )
  WF centre  163  (  3.446003,  3.956612,  3.301809 )
  WF centre  164  (  3.446054,  4.007255,  3.301716 )
  WF centre  165  (  0.000014,  3.973285, -0.086913 )
  WF centre  166  ( -0.000019,  3.956599,  0.052775 )
  WF centre  167  ( -0.000016,  4.007195,  0.052510 )
  WF centre  168  (  0.000014,  3.973285,  3.441217 )
  WF centre  169  ( -0.000019,  3.956599,  3.301529 )
  WF centre  170  ( -0.000016,  4.007195,  3.301794 )
  WF centre  171  ( -1.723156,  6.957547, -0.086926 )
  WF centre  172  ( -1.722986,  6.940968,  0.052691 )
  WF centre  173  ( -1.722997,  6.991600,  0.052399 )
  WF centre  174  ( -1.723156,  6.957547,  3.441230 )
  WF centre  175  ( -1.722986,  6.940968,  3.301613 )
  WF centre  176  ( -1.722997,  6.991600,  3.301905 )
 ------------------------------------------------------------------------------
 

 Wannier centres written to file 1Fe_initialconf.up_centres.xyz
  
  Omega Invariant:   1-s^2 =   336.205990837 (Ang^2)
                   -2log s =   345.592412931 (Ang^2)
                    acos^2 =   342.397560824 (Ang^2)
 Time for wannierise           35.932 (sec)

 Writing checkpoint file 1Fe_initialconf.up.chk... done

 *---------------------------------------------------------------------------*
 |                               PLOTTING                                    |
 *---------------------------------------------------------------------------*
 
    9 lattice points in Wigner-Seitz supercell:

      vector  -1  -2   0   degeneracy:  1
      vector  -1  -1   0   degeneracy:  1
      vector  -1   0   0   degeneracy:  1
      vector   0  -1   0   degeneracy:  1
      vector   0   0   0   degeneracy:  1
      vector   0   1   0   degeneracy:  1
      vector   1   0   0   degeneracy:  1
      vector   1   1   0   degeneracy:  1
      vector   1   2   0   degeneracy:  1
  tot =        9.000
  mp_grid product =            9
 
 Calculating interpolated band-structure
 
 Time to calculate interpolated band structure      10.936 (sec)
 
 Time for plotting             12.459 (sec)
 Total Execution Time          95.043 (sec)

 *===========================================================================*
 |                             TIMING INFORMATION                            |
 *===========================================================================*
 |    Tag                                                Ncalls      Time (s)|
 |---------------------------------------------------------------------------|
 |kmesh: get                                        :         1         0.027|
 |overlap: allocate                                 :         1         0.007|
 |overlap: read                                     :         1        15.805|
 |dis: main                                         :         1        30.738|
 |wann: main                                        :         1        35.932|
 |plot: main                                        :         1        12.459|
 *---------------------------------------------------------------------------*
 
 All done: wannier90 exiting
