 
             +---------------------------------------------------+
             |                                                   |
             |                   WANNIER90                       |
             |                                                   |
             +---------------------------------------------------+
             |                                                   |
             |        Welcome to the Maximally-Localized         |
             |        Generalized Wannier Functions code         |
             |            http://www.wannier.org                 |
             |                                                   |
             |                                                   |
             |  Wannier90 Developer Group:                       |
             |    Giovanni Pizzi    (EPFL)                       |
             |    Valerio Vitale    (Cambridge)                  |
             |    David Vanderbilt  (Rutgers University)         |
             |    Nicola Marzari    (EPFL)                       |
             |    Ivo Souza         (Universidad del Pais Vasco) |
             |    Arash A. Mostofi  (Imperial College London)    |
             |    Jonathan R. Yates (University of Oxford)       |
             |                                                   |
             |  For the full list of Wannier90 3.x authors,      |
             |  please check the code documentation and the      |
             |  README on the GitHub page of the code            |
             |                                                   |
             |                                                   |
             |  Please cite                                      |
             |                                                   |
             |  [ref] "Wannier90 as a community code:            |
             |        new features and applications",            |
             |        G. Pizzi et al., J. Phys. Cond. Matt. 32,  |
             |        165902 (2020).                             |
             |        http://doi.org/10.1088/1361-648X/ab51ff    |
             |                                                   |
             |  in any publications arising from the use of      |
             |  this code. For the method please cite            |
             |                                                   |
             |  [ref] "Maximally Localized Generalised Wannier   |
             |         Functions for Composite Energy Bands"     |
             |         N. Marzari and D. Vanderbilt              |
             |         Phys. Rev. B 56 12847 (1997)              |
             |                                                   |
             |  [ref] "Maximally Localized Wannier Functions     |
             |         for Entangled Energy Bands"               |
             |         I. Souza, N. Marzari and D. Vanderbilt    |
             |         Phys. Rev. B 65 035109 (2001)             |
             |                                                   |
             |                                                   |
             | Copyright (c) 1996-2020                           |
             |        The Wannier90 Developer Group and          |
             |        individual contributors                    |
             |                                                   |
             |      Release: 3.1.0        5th March    2020      |
             |                                                   |
             | This program is free software; you can            |
             | redistribute it and/or modify it under the terms  |
             | of the GNU General Public License as published by |
             | the Free Software Foundation; either version 2 of |
             | the License, or (at your option) any later version|
             |                                                   |
             | This program is distributed in the hope that it   |
             | will be useful, but WITHOUT ANY WARRANTY; without |
             | even the implied warranty of MERCHANTABILITY or   |
             | FITNESS FOR A PARTICULAR PURPOSE. See the GNU     |
             | General Public License for more details.          |
             |                                                   |
             | You should have received a copy of the GNU General|
             | Public License along with this program; if not,   |
             | write to the Free Software Foundation, Inc.,      |
             | 675 Mass Ave, Cambridge, MA 02139, USA.           |
             |                                                   |
             +---------------------------------------------------+
             |    Execution started on 17Jul2023 at 16:14:21     |
             +---------------------------------------------------+
 
 ******************************************************************************
 * -> Using CODATA 2006 constant values                                       *
 *    (http://physics.nist.gov/cuu/Constants/index.html)                      *
 * -> Using Bohr value from CODATA                                            *
 ******************************************************************************
 

 Running in parallel on  80 CPUs

 
                                    ------
                                    SYSTEM
                                    ------
 
                              Lattice Vectors (Ang)
                    a_1    13.784171   0.000000   0.000000
                    a_2    -6.892085  11.937442   0.000000
                    a_3     0.000000   0.000000  23.631430
 
                   Unit Cell Volume:    3888.49848  (Ang^3)
 
                        Reciprocal-Space Vectors (Ang^-1)
                    b_1     0.455826   0.263171   0.000000
                    b_2     0.000000   0.526343   0.000000
                    b_3     0.000000   0.000000   0.265883
  
 *----------------------------------------------------------------------------*
 |   Site       Fractional Coordinate          Cartesian Coordinate (Ang)     |
 +----------------------------------------------------------------------------+
 | Cr   1   0.33333   0.66667   0.24058   |   -0.00000   7.95829   5.68532    |
 | Nb   1   0.00000   0.00000   0.07170   |    0.00000   0.00000   1.69430    |
 | Nb   2   0.25189   0.00024   0.07201   |    3.47040   0.00287   1.70173    |
 | Nb   3   0.50228   0.00457   0.07084   |    6.89209   0.05454   1.67414    |
 | Nb   4   0.74835   0.00024   0.07201   |   10.31377   0.00287   1.70173    |
 | Nb   5   0.74850   0.25150   0.06828   |    8.58404   3.00230   1.61367    |
 | Nb   6   0.74850   0.49699   0.06828   |    6.89209   5.93284   1.61367    |
 | Nb   7   0.74835   0.74811   0.07201   |    5.15937   8.93055   1.70173    |
 | Nb   8   0.50032   0.75016   0.07859   |    1.72635   8.95500   1.85709    |
 | Nb   9   0.24984   0.75016   0.07859   |   -1.72635   8.95500   1.85709    |
 | Nb  10  -0.00024   0.74811   0.07201   |   -5.15937   8.93055   1.70173    |
 | Nb  11   0.50301   0.25150   0.06828   |    5.20014   3.00230   1.61367    |
 | Nb  12   0.50228   0.49772   0.07084   |    3.49327   5.94145   1.67414    |
 | Nb  13   0.24984   0.49968   0.07859   |   -0.00000   5.96488   1.85709    |
 | Nb  14   0.25189   0.25165   0.07201   |    1.73769   3.00402   1.70173    |
 | Nb  15  -0.00024   0.25165   0.07201   |   -1.73769   3.00402   1.70173    |
 | Nb  16  -0.00457   0.49772   0.07084   |   -3.49327   5.94145   1.67414    |
 | Se   1   0.16721   0.08361   0.00063   |    1.72866   0.99804   0.01486    |
 | Se   2   0.16690   0.08345   0.14290   |    1.72538   0.99615   3.37693    |
 | Se   3   0.41544   0.08143  -0.00156   |    5.16530   0.97207  -0.03681    |
 | Se   4   0.41911   0.08928   0.14188   |    5.16174   1.06572   3.35289    |
 | Se   5   0.66599   0.08143  -0.00156   |    8.61887   0.97207  -0.03681    |
 | Se   6   0.67017   0.08928   0.14188   |    8.62243   1.06572   3.35289    |
 | Se   7   0.91639   0.08361   0.00063   |   12.05551   0.99804   0.01486    |
 | Se   8   0.91655   0.08345   0.14290   |   12.05879   0.99615   3.37693    |
 | Se   9   0.91857   0.33401  -0.00156   |   10.35968   3.98724  -0.03681    |
 | Se  10   0.91072   0.32983   0.14188   |   10.28036   3.93734   3.35289    |
 | Se  11   0.91857   0.58456  -0.00156   |    8.63289   6.97813  -0.03681    |
 | Se  12   0.91072   0.58089   0.14188   |    8.55002   6.93438   3.35289    |
 | Se  13   0.91639   0.83279   0.00063   |    6.89209   9.94136   0.01486    |
 | Se  14   0.91655   0.83310   0.14290   |    6.89209   9.94514   3.37693    |
 | Se  15   0.66220   0.83110   0.00298   |    3.39989   9.92122   0.07043    |
 | Se  16   0.67172   0.83586   0.14547   |    3.49824   9.97800   3.43758    |
 | Se  17   0.41489   0.82979   0.00560   |    0.00000   9.90552   0.13226    |
 | Se  18   0.42825   0.85651   0.14992   |    0.00000  10.22450   3.54287    |
 | Se  19   0.16890   0.83110   0.00298   |   -3.39989   9.92122   0.07043    |
 | Se  20   0.16414   0.83586   0.14547   |   -3.49824   9.97800   3.43758    |
 | Se  21   0.66667   0.33333  -0.00432   |    6.89209   3.97915  -0.10210    |
 | Se  22   0.66667   0.33333   0.14105   |    6.89209   3.97915   3.33317    |
 | Se  23   0.66599   0.58456  -0.00156   |    5.15128   6.97813  -0.03681    |
 | Se  24   0.67017   0.58089   0.14188   |    5.23415   6.93438   3.35289    |
 | Se  25   0.41489   0.58511   0.00560   |    1.68635   6.98468   0.13226    |
 | Se  26   0.42825   0.57175   0.14992   |    1.96259   6.82519   3.54287    |
 | Se  27   0.41544   0.33401  -0.00156   |    3.42449   3.98724  -0.03681    |
 | Se  28   0.41911   0.32983   0.14188   |    3.50381   3.93734   3.35289    |
 | Se  29   0.16890   0.33780   0.00298   |    0.00000   4.03244   0.07043    |
 | Se  30   0.16414   0.32828   0.14547   |    0.00000   3.91888   3.43758    |
 | Se  31   0.17021   0.58511   0.00560   |   -1.68635   6.98468   0.13226    |
 | Se  32   0.14349   0.57175   0.14992   |   -1.96259   6.82519   3.54287    |
 *----------------------------------------------------------------------------*
                                -----------
                                PROJECTIONS
                                -----------
  
 +----------------------------------------------------------------------------+
 |     Frac. Coord.   l mr  r        z-axis               x-axis          Z/a |
 +----------------------------------------------------------------------------+
 |  0.33  0.67  0.24  2  1  1  0.000  0.000  1.000  1.000  0.000  0.000   1.0 |
 |  0.33  0.67  0.24  2  2  1  0.000  0.000  1.000  1.000  0.000  0.000   1.0 |
 |  0.33  0.67  0.24  2  3  1  0.000  0.000  1.000  1.000  0.000  0.000   1.0 |
 |  0.33  0.67  0.24  2  4  1  0.000  0.000  1.000  1.000  0.000  0.000   1.0 |
 |  0.33  0.67  0.24  2  5  1  0.000  0.000  1.000  1.000  0.000  0.000   1.0 |
 |  0.00  0.00  0.07  2  1  1  0.000  0.000  1.000  1.000  0.000  0.000   1.0 |
 |  0.00  0.00  0.07  2  2  1  0.000  0.000  1.000  1.000  0.000  0.000   1.0 |
 |  0.00  0.00  0.07  2  3  1  0.000  0.000  1.000  1.000  0.000  0.000   1.0 |
 |  0.00  0.00  0.07  2  4  1  0.000  0.000  1.000  1.000  0.000  0.000   1.0 |
 |  0.00  0.00  0.07  2  5  1  0.000  0.000  1.000  1.000  0.000  0.000   1.0 |
 |  0.25  0.00  0.07  2  1  1  0.000  0.000  1.000  1.000  0.000  0.000   1.0 |
 |  0.25  0.00  0.07  2  2  1  0.000  0.000  1.000  1.000  0.000  0.000   1.0 |
 |  0.25  0.00  0.07  2  3  1  0.000  0.000  1.000  1.000  0.000  0.000   1.0 |
 |  0.25  0.00  0.07  2  4  1  0.000  0.000  1.000  1.000  0.000  0.000   1.0 |
 |  0.25  0.00  0.07  2  5  1  0.000  0.000  1.000  1.000  0.000  0.000   1.0 |
 |  0.50  0.00  0.07  2  1  1  0.000  0.000  1.000  1.000  0.000  0.000   1.0 |
 |  0.50  0.00  0.07  2  2  1  0.000  0.000  1.000  1.000  0.000  0.000   1.0 |
 |  0.50  0.00  0.07  2  3  1  0.000  0.000  1.000  1.000  0.000  0.000   1.0 |
 |  0.50  0.00  0.07  2  4  1  0.000  0.000  1.000  1.000  0.000  0.000   1.0 |
 |  0.50  0.00  0.07  2  5  1  0.000  0.000  1.000  1.000  0.000  0.000   1.0 |
 |  0.75  0.00  0.07  2  1  1  0.000  0.000  1.000  1.000  0.000  0.000   1.0 |
 |  0.75  0.00  0.07  2  2  1  0.000  0.000  1.000  1.000  0.000  0.000   1.0 |
 |  0.75  0.00  0.07  2  3  1  0.000  0.000  1.000  1.000  0.000  0.000   1.0 |
 |  0.75  0.00  0.07  2  4  1  0.000  0.000  1.000  1.000  0.000  0.000   1.0 |
 |  0.75  0.00  0.07  2  5  1  0.000  0.000  1.000  1.000  0.000  0.000   1.0 |
 |  0.75  0.25  0.07  2  1  1  0.000  0.000  1.000  1.000  0.000  0.000   1.0 |
 |  0.75  0.25  0.07  2  2  1  0.000  0.000  1.000  1.000  0.000  0.000   1.0 |
 |  0.75  0.25  0.07  2  3  1  0.000  0.000  1.000  1.000  0.000  0.000   1.0 |
 |  0.75  0.25  0.07  2  4  1  0.000  0.000  1.000  1.000  0.000  0.000   1.0 |
 |  0.75  0.25  0.07  2  5  1  0.000  0.000  1.000  1.000  0.000  0.000   1.0 |
 |  0.75  0.50  0.07  2  1  1  0.000  0.000  1.000  1.000  0.000  0.000   1.0 |
 |  0.75  0.50  0.07  2  2  1  0.000  0.000  1.000  1.000  0.000  0.000   1.0 |
 |  0.75  0.50  0.07  2  3  1  0.000  0.000  1.000  1.000  0.000  0.000   1.0 |
 |  0.75  0.50  0.07  2  4  1  0.000  0.000  1.000  1.000  0.000  0.000   1.0 |
 |  0.75  0.50  0.07  2  5  1  0.000  0.000  1.000  1.000  0.000  0.000   1.0 |
 |  0.75  0.75  0.07  2  1  1  0.000  0.000  1.000  1.000  0.000  0.000   1.0 |
 |  0.75  0.75  0.07  2  2  1  0.000  0.000  1.000  1.000  0.000  0.000   1.0 |
 |  0.75  0.75  0.07  2  3  1  0.000  0.000  1.000  1.000  0.000  0.000   1.0 |
 |  0.75  0.75  0.07  2  4  1  0.000  0.000  1.000  1.000  0.000  0.000   1.0 |
 |  0.75  0.75  0.07  2  5  1  0.000  0.000  1.000  1.000  0.000  0.000   1.0 |
 |  0.50  0.75  0.08  2  1  1  0.000  0.000  1.000  1.000  0.000  0.000   1.0 |
 |  0.50  0.75  0.08  2  2  1  0.000  0.000  1.000  1.000  0.000  0.000   1.0 |
 |  0.50  0.75  0.08  2  3  1  0.000  0.000  1.000  1.000  0.000  0.000   1.0 |
 |  0.50  0.75  0.08  2  4  1  0.000  0.000  1.000  1.000  0.000  0.000   1.0 |
 |  0.50  0.75  0.08  2  5  1  0.000  0.000  1.000  1.000  0.000  0.000   1.0 |
 |  0.25  0.75  0.08  2  1  1  0.000  0.000  1.000  1.000  0.000  0.000   1.0 |
 |  0.25  0.75  0.08  2  2  1  0.000  0.000  1.000  1.000  0.000  0.000   1.0 |
 |  0.25  0.75  0.08  2  3  1  0.000  0.000  1.000  1.000  0.000  0.000   1.0 |
 |  0.25  0.75  0.08  2  4  1  0.000  0.000  1.000  1.000  0.000  0.000   1.0 |
 |  0.25  0.75  0.08  2  5  1  0.000  0.000  1.000  1.000  0.000  0.000   1.0 |
 | -0.00  0.75  0.07  2  1  1  0.000  0.000  1.000  1.000  0.000  0.000   1.0 |
 | -0.00  0.75  0.07  2  2  1  0.000  0.000  1.000  1.000  0.000  0.000   1.0 |
 | -0.00  0.75  0.07  2  3  1  0.000  0.000  1.000  1.000  0.000  0.000   1.0 |
 | -0.00  0.75  0.07  2  4  1  0.000  0.000  1.000  1.000  0.000  0.000   1.0 |
 | -0.00  0.75  0.07  2  5  1  0.000  0.000  1.000  1.000  0.000  0.000   1.0 |
 |  0.50  0.25  0.07  2  1  1  0.000  0.000  1.000  1.000  0.000  0.000   1.0 |
 |  0.50  0.25  0.07  2  2  1  0.000  0.000  1.000  1.000  0.000  0.000   1.0 |
 |  0.50  0.25  0.07  2  3  1  0.000  0.000  1.000  1.000  0.000  0.000   1.0 |
 |  0.50  0.25  0.07  2  4  1  0.000  0.000  1.000  1.000  0.000  0.000   1.0 |
 |  0.50  0.25  0.07  2  5  1  0.000  0.000  1.000  1.000  0.000  0.000   1.0 |
 |  0.50  0.50  0.07  2  1  1  0.000  0.000  1.000  1.000  0.000  0.000   1.0 |
 |  0.50  0.50  0.07  2  2  1  0.000  0.000  1.000  1.000  0.000  0.000   1.0 |
 |  0.50  0.50  0.07  2  3  1  0.000  0.000  1.000  1.000  0.000  0.000   1.0 |
 |  0.50  0.50  0.07  2  4  1  0.000  0.000  1.000  1.000  0.000  0.000   1.0 |
 |  0.50  0.50  0.07  2  5  1  0.000  0.000  1.000  1.000  0.000  0.000   1.0 |
 |  0.25  0.50  0.08  2  1  1  0.000  0.000  1.000  1.000  0.000  0.000   1.0 |
 |  0.25  0.50  0.08  2  2  1  0.000  0.000  1.000  1.000  0.000  0.000   1.0 |
 |  0.25  0.50  0.08  2  3  1  0.000  0.000  1.000  1.000  0.000  0.000   1.0 |
 |  0.25  0.50  0.08  2  4  1  0.000  0.000  1.000  1.000  0.000  0.000   1.0 |
 |  0.25  0.50  0.08  2  5  1  0.000  0.000  1.000  1.000  0.000  0.000   1.0 |
 |  0.25  0.25  0.07  2  1  1  0.000  0.000  1.000  1.000  0.000  0.000   1.0 |
 |  0.25  0.25  0.07  2  2  1  0.000  0.000  1.000  1.000  0.000  0.000   1.0 |
 |  0.25  0.25  0.07  2  3  1  0.000  0.000  1.000  1.000  0.000  0.000   1.0 |
 |  0.25  0.25  0.07  2  4  1  0.000  0.000  1.000  1.000  0.000  0.000   1.0 |
 |  0.25  0.25  0.07  2  5  1  0.000  0.000  1.000  1.000  0.000  0.000   1.0 |
 | -0.00  0.25  0.07  2  1  1  0.000  0.000  1.000  1.000  0.000  0.000   1.0 |
 | -0.00  0.25  0.07  2  2  1  0.000  0.000  1.000  1.000  0.000  0.000   1.0 |
 | -0.00  0.25  0.07  2  3  1  0.000  0.000  1.000  1.000  0.000  0.000   1.0 |
 | -0.00  0.25  0.07  2  4  1  0.000  0.000  1.000  1.000  0.000  0.000   1.0 |
 | -0.00  0.25  0.07  2  5  1  0.000  0.000  1.000  1.000  0.000  0.000   1.0 |
 | -0.00  0.50  0.07  2  1  1  0.000  0.000  1.000  1.000  0.000  0.000   1.0 |
 | -0.00  0.50  0.07  2  2  1  0.000  0.000  1.000  1.000  0.000  0.000   1.0 |
 | -0.00  0.50  0.07  2  3  1  0.000  0.000  1.000  1.000  0.000  0.000   1.0 |
 | -0.00  0.50  0.07  2  4  1  0.000  0.000  1.000  1.000  0.000  0.000   1.0 |
 | -0.00  0.50  0.07  2  5  1  0.000  0.000  1.000  1.000  0.000  0.000   1.0 |
 |  0.17  0.08  0.00  1  1  1  0.000  0.000  1.000  1.000  0.000  0.000   1.0 |
 |  0.17  0.08  0.00  1  2  1  0.000  0.000  1.000  1.000  0.000  0.000   1.0 |
 |  0.17  0.08  0.00  1  3  1  0.000  0.000  1.000  1.000  0.000  0.000   1.0 |
 |  0.17  0.08  0.14  1  1  1  0.000  0.000  1.000  1.000  0.000  0.000   1.0 |
 |  0.17  0.08  0.14  1  2  1  0.000  0.000  1.000  1.000  0.000  0.000   1.0 |
 |  0.17  0.08  0.14  1  3  1  0.000  0.000  1.000  1.000  0.000  0.000   1.0 |
 |  0.42  0.08 -0.00  1  1  1  0.000  0.000  1.000  1.000  0.000  0.000   1.0 |
 |  0.42  0.08 -0.00  1  2  1  0.000  0.000  1.000  1.000  0.000  0.000   1.0 |
 |  0.42  0.08 -0.00  1  3  1  0.000  0.000  1.000  1.000  0.000  0.000   1.0 |
 |  0.42  0.09  0.14  1  1  1  0.000  0.000  1.000  1.000  0.000  0.000   1.0 |
 |  0.42  0.09  0.14  1  2  1  0.000  0.000  1.000  1.000  0.000  0.000   1.0 |
 |  0.42  0.09  0.14  1  3  1  0.000  0.000  1.000  1.000  0.000  0.000   1.0 |
 |  0.67  0.08 -0.00  1  1  1  0.000  0.000  1.000  1.000  0.000  0.000   1.0 |
 |  0.67  0.08 -0.00  1  2  1  0.000  0.000  1.000  1.000  0.000  0.000   1.0 |
 |  0.67  0.08 -0.00  1  3  1  0.000  0.000  1.000  1.000  0.000  0.000   1.0 |
 |  0.67  0.09  0.14  1  1  1  0.000  0.000  1.000  1.000  0.000  0.000   1.0 |
 |  0.67  0.09  0.14  1  2  1  0.000  0.000  1.000  1.000  0.000  0.000   1.0 |
 |  0.67  0.09  0.14  1  3  1  0.000  0.000  1.000  1.000  0.000  0.000   1.0 |
 |  0.92  0.08  0.00  1  1  1  0.000  0.000  1.000  1.000  0.000  0.000   1.0 |
 |  0.92  0.08  0.00  1  2  1  0.000  0.000  1.000  1.000  0.000  0.000   1.0 |
 |  0.92  0.08  0.00  1  3  1  0.000  0.000  1.000  1.000  0.000  0.000   1.0 |
 |  0.92  0.08  0.14  1  1  1  0.000  0.000  1.000  1.000  0.000  0.000   1.0 |
 |  0.92  0.08  0.14  1  2  1  0.000  0.000  1.000  1.000  0.000  0.000   1.0 |
 |  0.92  0.08  0.14  1  3  1  0.000  0.000  1.000  1.000  0.000  0.000   1.0 |
 |  0.92  0.33 -0.00  1  1  1  0.000  0.000  1.000  1.000  0.000  0.000   1.0 |
 |  0.92  0.33 -0.00  1  2  1  0.000  0.000  1.000  1.000  0.000  0.000   1.0 |
 |  0.92  0.33 -0.00  1  3  1  0.000  0.000  1.000  1.000  0.000  0.000   1.0 |
 |  0.91  0.33  0.14  1  1  1  0.000  0.000  1.000  1.000  0.000  0.000   1.0 |
 |  0.91  0.33  0.14  1  2  1  0.000  0.000  1.000  1.000  0.000  0.000   1.0 |
 |  0.91  0.33  0.14  1  3  1  0.000  0.000  1.000  1.000  0.000  0.000   1.0 |
 |  0.92  0.58 -0.00  1  1  1  0.000  0.000  1.000  1.000  0.000  0.000   1.0 |
 |  0.92  0.58 -0.00  1  2  1  0.000  0.000  1.000  1.000  0.000  0.000   1.0 |
 |  0.92  0.58 -0.00  1  3  1  0.000  0.000  1.000  1.000  0.000  0.000   1.0 |
 |  0.91  0.58  0.14  1  1  1  0.000  0.000  1.000  1.000  0.000  0.000   1.0 |
 |  0.91  0.58  0.14  1  2  1  0.000  0.000  1.000  1.000  0.000  0.000   1.0 |
 |  0.91  0.58  0.14  1  3  1  0.000  0.000  1.000  1.000  0.000  0.000   1.0 |
 |  0.92  0.83  0.00  1  1  1  0.000  0.000  1.000  1.000  0.000  0.000   1.0 |
 |  0.92  0.83  0.00  1  2  1  0.000  0.000  1.000  1.000  0.000  0.000   1.0 |
 |  0.92  0.83  0.00  1  3  1  0.000  0.000  1.000  1.000  0.000  0.000   1.0 |
 |  0.92  0.83  0.14  1  1  1  0.000  0.000  1.000  1.000  0.000  0.000   1.0 |
 |  0.92  0.83  0.14  1  2  1  0.000  0.000  1.000  1.000  0.000  0.000   1.0 |
 |  0.92  0.83  0.14  1  3  1  0.000  0.000  1.000  1.000  0.000  0.000   1.0 |
 |  0.66  0.83  0.00  1  1  1  0.000  0.000  1.000  1.000  0.000  0.000   1.0 |
 |  0.66  0.83  0.00  1  2  1  0.000  0.000  1.000  1.000  0.000  0.000   1.0 |
 |  0.66  0.83  0.00  1  3  1  0.000  0.000  1.000  1.000  0.000  0.000   1.0 |
 |  0.67  0.84  0.15  1  1  1  0.000  0.000  1.000  1.000  0.000  0.000   1.0 |
 |  0.67  0.84  0.15  1  2  1  0.000  0.000  1.000  1.000  0.000  0.000   1.0 |
 |  0.67  0.84  0.15  1  3  1  0.000  0.000  1.000  1.000  0.000  0.000   1.0 |
 |  0.41  0.83  0.01  1  1  1  0.000  0.000  1.000  1.000  0.000  0.000   1.0 |
 |  0.41  0.83  0.01  1  2  1  0.000  0.000  1.000  1.000  0.000  0.000   1.0 |
 |  0.41  0.83  0.01  1  3  1  0.000  0.000  1.000  1.000  0.000  0.000   1.0 |
 |  0.43  0.86  0.15  1  1  1  0.000  0.000  1.000  1.000  0.000  0.000   1.0 |
 |  0.43  0.86  0.15  1  2  1  0.000  0.000  1.000  1.000  0.000  0.000   1.0 |
 |  0.43  0.86  0.15  1  3  1  0.000  0.000  1.000  1.000  0.000  0.000   1.0 |
 |  0.17  0.83  0.00  1  1  1  0.000  0.000  1.000  1.000  0.000  0.000   1.0 |
 |  0.17  0.83  0.00  1  2  1  0.000  0.000  1.000  1.000  0.000  0.000   1.0 |
 |  0.17  0.83  0.00  1  3  1  0.000  0.000  1.000  1.000  0.000  0.000   1.0 |
 |  0.16  0.84  0.15  1  1  1  0.000  0.000  1.000  1.000  0.000  0.000   1.0 |
 |  0.16  0.84  0.15  1  2  1  0.000  0.000  1.000  1.000  0.000  0.000   1.0 |
 |  0.16  0.84  0.15  1  3  1  0.000  0.000  1.000  1.000  0.000  0.000   1.0 |
 |  0.67  0.33 -0.00  1  1  1  0.000  0.000  1.000  1.000  0.000  0.000   1.0 |
 |  0.67  0.33 -0.00  1  2  1  0.000  0.000  1.000  1.000  0.000  0.000   1.0 |
 |  0.67  0.33 -0.00  1  3  1  0.000  0.000  1.000  1.000  0.000  0.000   1.0 |
 |  0.67  0.33  0.14  1  1  1  0.000  0.000  1.000  1.000  0.000  0.000   1.0 |
 |  0.67  0.33  0.14  1  2  1  0.000  0.000  1.000  1.000  0.000  0.000   1.0 |
 |  0.67  0.33  0.14  1  3  1  0.000  0.000  1.000  1.000  0.000  0.000   1.0 |
 |  0.67  0.58 -0.00  1  1  1  0.000  0.000  1.000  1.000  0.000  0.000   1.0 |
 |  0.67  0.58 -0.00  1  2  1  0.000  0.000  1.000  1.000  0.000  0.000   1.0 |
 |  0.67  0.58 -0.00  1  3  1  0.000  0.000  1.000  1.000  0.000  0.000   1.0 |
 |  0.67  0.58  0.14  1  1  1  0.000  0.000  1.000  1.000  0.000  0.000   1.0 |
 |  0.67  0.58  0.14  1  2  1  0.000  0.000  1.000  1.000  0.000  0.000   1.0 |
 |  0.67  0.58  0.14  1  3  1  0.000  0.000  1.000  1.000  0.000  0.000   1.0 |
 |  0.41  0.59  0.01  1  1  1  0.000  0.000  1.000  1.000  0.000  0.000   1.0 |
 |  0.41  0.59  0.01  1  2  1  0.000  0.000  1.000  1.000  0.000  0.000   1.0 |
 |  0.41  0.59  0.01  1  3  1  0.000  0.000  1.000  1.000  0.000  0.000   1.0 |
 |  0.43  0.57  0.15  1  1  1  0.000  0.000  1.000  1.000  0.000  0.000   1.0 |
 |  0.43  0.57  0.15  1  2  1  0.000  0.000  1.000  1.000  0.000  0.000   1.0 |
 |  0.43  0.57  0.15  1  3  1  0.000  0.000  1.000  1.000  0.000  0.000   1.0 |
 |  0.42  0.33 -0.00  1  1  1  0.000  0.000  1.000  1.000  0.000  0.000   1.0 |
 |  0.42  0.33 -0.00  1  2  1  0.000  0.000  1.000  1.000  0.000  0.000   1.0 |
 |  0.42  0.33 -0.00  1  3  1  0.000  0.000  1.000  1.000  0.000  0.000   1.0 |
 |  0.42  0.33  0.14  1  1  1  0.000  0.000  1.000  1.000  0.000  0.000   1.0 |
 |  0.42  0.33  0.14  1  2  1  0.000  0.000  1.000  1.000  0.000  0.000   1.0 |
 |  0.42  0.33  0.14  1  3  1  0.000  0.000  1.000  1.000  0.000  0.000   1.0 |
 |  0.17  0.34  0.00  1  1  1  0.000  0.000  1.000  1.000  0.000  0.000   1.0 |
 |  0.17  0.34  0.00  1  2  1  0.000  0.000  1.000  1.000  0.000  0.000   1.0 |
 |  0.17  0.34  0.00  1  3  1  0.000  0.000  1.000  1.000  0.000  0.000   1.0 |
 |  0.16  0.33  0.15  1  1  1  0.000  0.000  1.000  1.000  0.000  0.000   1.0 |
 |  0.16  0.33  0.15  1  2  1  0.000  0.000  1.000  1.000  0.000  0.000   1.0 |
 |  0.16  0.33  0.15  1  3  1  0.000  0.000  1.000  1.000  0.000  0.000   1.0 |
 |  0.17  0.59  0.01  1  1  1  0.000  0.000  1.000  1.000  0.000  0.000   1.0 |
 |  0.17  0.59  0.01  1  2  1  0.000  0.000  1.000  1.000  0.000  0.000   1.0 |
 |  0.17  0.59  0.01  1  3  1  0.000  0.000  1.000  1.000  0.000  0.000   1.0 |
 |  0.14  0.57  0.15  1  1  1  0.000  0.000  1.000  1.000  0.000  0.000   1.0 |
 |  0.14  0.57  0.15  1  2  1  0.000  0.000  1.000  1.000  0.000  0.000   1.0 |
 |  0.14  0.57  0.15  1  3  1  0.000  0.000  1.000  1.000  0.000  0.000   1.0 |
 +----------------------------------------------------------------------------+
  
                                ------------
                                K-POINT GRID
                                ------------
  
             Grid size =  4 x  4 x  1      Total points =   16
  
 *----------------------------------------------------------------------------*
 | k-point      Fractional Coordinate        Cartesian Coordinate (Ang^-1)    |
 +----------------------------------------------------------------------------+
 |     1    0.00000   0.00000   0.00000   |    0.00000   0.00000   0.00000    |
 |     2    0.00000   0.25000   0.00000   |    0.00000   0.13159   0.00000    |
 |     3    0.00000   0.50000   0.00000   |    0.00000   0.26317   0.00000    |
 |     4    0.00000   0.75000   0.00000   |    0.00000   0.39476   0.00000    |
 |     5    0.25000   0.00000   0.00000   |    0.11396   0.06579   0.00000    |
 |     6    0.25000   0.25000   0.00000   |    0.11396   0.19738   0.00000    |
 |     7    0.25000   0.50000   0.00000   |    0.11396   0.32896   0.00000    |
 |     8    0.25000   0.75000   0.00000   |    0.11396   0.46055   0.00000    |
 |     9    0.50000   0.00000   0.00000   |    0.22791   0.13159   0.00000    |
 |    10    0.50000   0.25000   0.00000   |    0.22791   0.26317   0.00000    |
 |    11    0.50000   0.50000   0.00000   |    0.22791   0.39476   0.00000    |
 |    12    0.50000   0.75000   0.00000   |    0.22791   0.52634   0.00000    |
 |    13    0.75000   0.00000   0.00000   |    0.34187   0.19738   0.00000    |
 |    14    0.75000   0.25000   0.00000   |    0.34187   0.32896   0.00000    |
 |    15    0.75000   0.50000   0.00000   |    0.34187   0.46055   0.00000    |
 |    16    0.75000   0.75000   0.00000   |    0.34187   0.59214   0.00000    |
 *----------------------------------------------------------------------------*
  
  
 *---------------------------------- MAIN ------------------------------------*
 |  Number of Wannier Functions               :               181             |
 |  Number of Objective Wannier Functions     :               181             |
 |  Number of input Bloch states              :               450             |
 |  Output verbosity (1=low, 5=high)          :                 3             |
 |  Timing Level (1=low, 5=high)              :                 1             |
 |  Optimisation (0=memory, 3=speed)          :                 3             |
 |  Length Unit                               :               Ang             |
 |  Post-processing setup (write *.nnkp)      :                 F             |
 |  Using Gamma-only branch of algorithms     :                 F             |
 |  CP code post-processing                   :                 F             |
 |  Wavefunction (UNK) file-type              :       unformatted             |
 |  Wavefunction spin channel                 :                up             |
 *----------------------------------------------------------------------------*
 *------------------------------- WANNIERISE ---------------------------------*
 |  Total number of iterations                :               500             |
 |  Number of CG steps before reset           :                 5             |
 |  Trial step length for line search         :             2.000             |
 |  Convergence tolerence                     :         0.100E-09             |
 |  Convergence window                        :                -1             |
 |  Iterations between writing output         :                50             |
 |  Iterations between backing up to disk     :               100             |
 |  Write r^2_nm to file                      :                 F             |
 |  Write xyz WF centres to file              :                 T             |
 |  Write on-site energies <0n|H|0n> to file  :                 F             |
 |  Use guiding centre to control phases      :                 T             |
 |  Use phases for initial projections        :                 F             |
 |  Iterations before starting guiding centres:                 0             |
 |  Iterations between using guiding centres  :                 1             |
 |  Perform selective localization            :                 F             |
 |  Use constrains in selective localization  :                 F             |
 |  Value of the Lagrange multiplier          :         0.100E+01             |
 *----------------------------------------------------------------------------*
 *------------------------------- DISENTANGLE --------------------------------*
 |  Using band disentanglement                :                 T             |
 |  Total number of iterations                :              4000             |
 |  Mixing ratio                              :             0.500             |
 |  Convergence tolerence                     :         1.000E-10             |
 |  Convergence window                        :                 3             |
 *----------------------------------------------------------------------------*
 *-------------------------------- PLOTTING ----------------------------------*
 |  Plotting Wannier functions                :                 F             |
 |   Size of supercell for plotting           :     2x    2x    2             |
 |   Plotting mode (molecule or crystal)      :           crystal             |
 |   Plotting format                          :          xcrysden             |
 |   Plot radius                              :             3.500             |
 |   Plot scale                               :             1.000             |
 *----------------------------------------------------------------------------*
 |  Plotting Fermi surface                    :                 F             |
 |   Number of plotting points (along b_1)    :                50             |
 |   Plotting format                          :          xcrysden             |
 *----------------------------------------------------------------------------*
 |  Plotting interpolated bandstructure       :                 T             |
 |   Number of K-path sections                :                 3             |
 |   Divisions along first K-path section     :               100             |
 |   Output format                            :           gnuplot             |
 |   Output mode                              :               s-k             |
 *----------------------------------------------------------------------------*
 |   K-space path sections:                                                   |
 |    From: Γ      0.000  0.000  0.000     To: M       0.500  0.000  0.000   |
 |    From: M       0.500  0.000  0.000     To: K       0.333  0.333  0.000   |
 |    From: K       0.333  0.333  0.000     To: Γ      0.000  0.000  0.000   |
 *----------------------------------------------------------------------------*
 |  Plotting Hamiltonian in WF basis          :                 T             |
 *----------------------------------------------------------------------------*
 |  Writing data for Van der Waals post-proc  :                 F             |
 *----------------------------------------------------------------------------*
 *------------------------------- TRANSPORT ----------------------------------*
 |  Transport mode                            :              bulk             |
 |   Hamiltonian from external files          :                 F             |
 |   System extended in                       :              none             |
 |   Centre of the unit cell to which WF are translated (fract. coords):      |
 |                                       0.000000,    0.000000,    0.000000   |
 |  Fermi energy (eV)                         :             0.000             |
 *----------------------------------------------------------------------------*
 Time to read parameters        0.042 (sec)

 *---------------------------------- K-MESH ----------------------------------*
 +----------------------------------------------------------------------------+
 |                    Distance to Nearest-Neighbour Shells                    |
 |                    ------------------------------------                    |
 |          Shell             Distance (Ang^-1)          Multiplicity         |
 |          -----             -----------------          ------------         |
 |             1                   0.131586                      6            |
 |             2                   0.227913                      6            |
 |             3                   0.263171                      6            |
 |             4                   0.265883                      2            |
 |             5                   0.296662                     12            |
 |             6                   0.348143                     12            |
 |             7                   0.350197                     12            |
 |             8                   0.374103                     12            |
 |             9                   0.394757                      6            |
 |            10                   0.438061                     24            |
 |            11                   0.455826                      6            |
 |            12                   0.474439                     12            |
 |            13                   0.475948                     12            |
 |            14                   0.526343                      6            |
 |            15                   0.527704                     12            |
 |            16                   0.531765                      2            |
 |            17                   0.543862                     24            |
 |            18                   0.547804                     12            |
 |            19                   0.573569                     12            |
 |            20                   0.578549                     12            |
 |            21                   0.589686                     12            |
 |            22                   0.593324                     12            |
 |            23                   0.603001                     12            |
 |            24                   0.632198                     24            |
 |            25                   0.635592                     24            |
 |            26                   0.657928                      6            |
 |            27                   0.659018                     24            |
 |            28                   0.662274                     12            |
 |            29                   0.683739                      6            |
 |            30                   0.696286                     12            |
 |            31                   0.700394                     12            |
 |            32                   0.709622                     12            |
 |            33                   0.712647                     24            |
 |            34                   0.732638                     12            |
 |            35                   0.733616                     12            |
 |            36                   0.745324                     24            |
 +----------------------------------------------------------------------------+
 | The b-vectors are chosen automatically                                     |
 | Shell:  1 Multiplicity:  6                                                 |
 | b-vector 1 :        0.000000    0.131586    0.000000      (Ang^-1)         |
 | b-vector 2 :        0.113957    0.065793    0.000000      (Ang^-1)         |
 | b-vector 3 :        0.000000   -0.131586    0.000000      (Ang^-1)         |
 | b-vector 4 :        0.113957   -0.065793    0.000000      (Ang^-1)         |
 | b-vector 5 :       -0.113957   -0.065793    0.000000      (Ang^-1)         |
 | b-vector 6 :       -0.113957    0.065793    0.000000      (Ang^-1)         |
 | Shell:  1 w_b   19.2513662      (Ang^2)                                    |
 | B1 condition is not satisfied: Adding another shell                        |
 | Shell:  2 Multiplicity:  6                                                 |
 | b-vector 1 :        0.113957    0.197379    0.000000      (Ang^-1)         |
 | b-vector 2 :        0.113957   -0.197379    0.000000      (Ang^-1)         |
 | b-vector 3 :        0.227913   -0.000000    0.000000      (Ang^-1)         |
 | b-vector 4 :       -0.227913    0.000000    0.000000      (Ang^-1)         |
 | b-vector 5 :       -0.113957    0.197379    0.000000      (Ang^-1)         |
 | b-vector 6 :       -0.113957   -0.197379    0.000000      (Ang^-1)         |
 | SVD found small singular value, Rejecting this shell and trying the next   |
 | Shell:  3 Multiplicity:  6                                                 |
 | b-vector 1 :        0.000000    0.263171    0.000000      (Ang^-1)         |
 | b-vector 2 :        0.227913    0.131586    0.000000      (Ang^-1)         |
 | b-vector 3 :        0.000000   -0.263171    0.000000      (Ang^-1)         |
 | b-vector 4 :        0.227913   -0.131586    0.000000      (Ang^-1)         |
 | b-vector 5 :       -0.227913   -0.131586    0.000000      (Ang^-1)         |
 | b-vector 6 :       -0.227913    0.131586    0.000000      (Ang^-1)         |
 | This shell is linearly dependent on existing shells: Trying next shell     |
 | Shell:  4 Multiplicity:  2                                                 |
 | b-vector 1 :        0.000000    0.000000    0.265883      (Ang^-1)         |
 | b-vector 2 :        0.000000    0.000000   -0.265883      (Ang^-1)         |
 | Shell:  1 w_b   19.2513662      (Ang^2)                                    |
 | Shell:  2 w_b    7.0727819      (Ang^2)                                    |
 | The following shells are used:   1,  4                                     |
 +----------------------------------------------------------------------------+
 |                        Shell   # Nearest-Neighbours                        |
 |                        -----   --------------------                        |
 |                          1               6                                 |
 |                          4               2                                 |
 +----------------------------------------------------------------------------+
 | Completeness relation is fully satisfied [Eq. (B1), PRB 56, 12847 (1997)]  |
 +----------------------------------------------------------------------------+
 |                  b_k Vectors (Ang^-1) and Weights (Ang^2)                  |
 |                  ----------------------------------------                  |
 |            No.         b_k(x)      b_k(y)      b_k(z)        w_b           |
 |            ---        --------------------------------     --------        |
 |             1         0.000000    0.131586    0.000000    19.251366        |
 |             2         0.113957    0.065793    0.000000    19.251366        |
 |             3         0.000000   -0.131586    0.000000    19.251366        |
 |             4         0.113957   -0.065793    0.000000    19.251366        |
 |             5        -0.113957   -0.065793    0.000000    19.251366        |
 |             6        -0.113957    0.065793    0.000000    19.251366        |
 |             7         0.000000    0.000000    0.265883     7.072782        |
 |             8         0.000000    0.000000   -0.265883     7.072782        |
 +----------------------------------------------------------------------------+
 |                           b_k Directions (Ang^-1)                          |
 |                           -----------------------                          |
 |            No.           x           y           z                         |
 |            ---        --------------------------------                     |
 |             1         0.000000    0.131586    0.000000                     |
 |             2         0.113957    0.065793    0.000000                     |
 |             3         0.113957   -0.065793    0.000000                     |
 |             4         0.000000    0.000000    0.265883                     |
 +----------------------------------------------------------------------------+
  
 Time to get kmesh              0.033 (sec)
 *============================================================================*
 |                              MEMORY ESTIMATE                               |
 |         Maximum RAM allocated during each phase of the calculation         |
 *============================================================================*
 |                        Disentanglement          550.06 Mb                  |
 |                            Wannierise:          183.41 Mb                  |
 |                                                                            |
 |   N.B. by setting optimisation=0 memory usage will be reduced to:          |
 |                        Disentanglement          550.06 Mb                  |
 |                            Wannierise:          119.42 Mb                  |
 |   However, this will result in more i/o and slow down the calculation      |
 |                          plot_wannier:          183.41 Mb                  |
 *----------------------------------------------------------------------------*
  
 Starting a new Wannier90 calculation ...


 Reading overlaps from 1Fe_centreconf.down.mmn    :  Created on 11Jul2023 at 21:30: 4

 Reading projections from 1Fe_centreconf.down.amn :  Created on 11Jul2023 at 21:11:12

 Time to read overlaps         65.671 (sec)

 *------------------------------- DISENTANGLE --------------------------------*
 +----------------------------------------------------------------------------+
 |                              Energy  Windows                               |
 |                              ---------------                               |
 |                   Outer:  -30.00000  to   30.00000  (eV)                   |
 |                   Inner:   -6.00000  to    0.50000  (eV)                   |
 +----------------------------------------------------------------------------+
 |                        K-points with Frozen States                         |
 |                        ---------------------------                         |
 |     1     2     3     4     5     6     7     8     9    10    11    12    |
 |    13    14    15    16                                                    |
 +----------------------------------------------------------------------------+
   Number of target bands to extract:  181
 +----------------------------------------------------------------------------+
 |                                  Windows                                   |
 |                                  -------                                   |
 |               K-point      Ndimwin     Ndimfroz    Nfirstwin               |
 |               ----------------------------------------------               |
 |                   1          382          108          69                  |
 |                   2          382          109          69                  |
 |                   3          382          112          69                  |
 |                   4          382          109          69                  |
 |                   5          382          109          69                  |
 |                   6          382          112          69                  |
 |                   7          382          112          69                  |
 |                   8          382          109          69                  |
 |                   9          382          112          69                  |
 |                  10          382          112          69                  |
 |                  11          382          112          69                  |
 |                  12          382          112          69                  |
 |                  13          382          109          69                  |
 |                  14          382          109          69                  |
 |                  15          382          112          69                  |
 |                  16          382          112          69                  |
 +----------------------------------------------------------------------------+

                   Unitarised projection of Wannier functions                  
                   ------------------------------------------                  
   A_mn = <psi_m|g_n> --> S = A.A^+ --> U = S^-1/2.A
   In dis_project... done
   Using an inner window (linner = T)
   In dis_proj_froz...
 K-point   1 ndimwin: 382 we want the 73 leading eigenvector(s) of QPQ
  lambda(  1)= -0.000000000000
  lambda(  2)= -0.000000000000
  lambda(  3)= -0.000000000000
  lambda(  4)= -0.000000000000
  lambda(  5)= -0.000000000000
  lambda(  6)= -0.000000000000
  lambda(  7)= -0.000000000000
  lambda(  8)= -0.000000000000
  lambda(  9)= -0.000000000000
  lambda( 10)= -0.000000000000
  lambda( 11)= -0.000000000000
  lambda( 12)= -0.000000000000
  lambda( 13)= -0.000000000000
  lambda( 14)= -0.000000000000
  lambda( 15)= -0.000000000000
  lambda( 16)= -0.000000000000
  lambda( 17)= -0.000000000000
  lambda( 18)= -0.000000000000
  lambda( 19)= -0.000000000000
  lambda( 20)= -0.000000000000
  lambda( 21)= -0.000000000000
  lambda( 22)= -0.000000000000
  lambda( 23)= -0.000000000000
  lambda( 24)= -0.000000000000
  lambda( 25)= -0.000000000000
  lambda( 26)= -0.000000000000
  lambda( 27)= -0.000000000000
  lambda( 28)= -0.000000000000
  lambda( 29)= -0.000000000000
  lambda( 30)= -0.000000000000
  lambda( 31)= -0.000000000000
  lambda( 32)= -0.000000000000
  lambda( 33)= -0.000000000000
  lambda( 34)= -0.000000000000
  lambda( 35)= -0.000000000000
  lambda( 36)= -0.000000000000
  lambda( 37)= -0.000000000000
  lambda( 38)= -0.000000000000
  lambda( 39)= -0.000000000000
  lambda( 40)= -0.000000000000
  lambda( 41)= -0.000000000000
  lambda( 42)= -0.000000000000
  lambda( 43)= -0.000000000000
  lambda( 44)= -0.000000000000
  lambda( 45)= -0.000000000000
  lambda( 46)= -0.000000000000
  lambda( 47)= -0.000000000000
  lambda( 48)= -0.000000000000
  lambda( 49)= -0.000000000000
  lambda( 50)= -0.000000000000
  lambda( 51)= -0.000000000000
  lambda( 52)= -0.000000000000
  lambda( 53)= -0.000000000000
  lambda( 54)= -0.000000000000
  lambda( 55)= -0.000000000000
  lambda( 56)= -0.000000000000
  lambda( 57)= -0.000000000000
  lambda( 58)= -0.000000000000
  lambda( 59)= -0.000000000000
  lambda( 60)= -0.000000000000
  lambda( 61)= -0.000000000000
  lambda( 62)= -0.000000000000
  lambda( 63)= -0.000000000000
  lambda( 64)= -0.000000000000
  lambda( 65)= -0.000000000000
  lambda( 66)= -0.000000000000
  lambda( 67)= -0.000000000000
  lambda( 68)= -0.000000000000
  lambda( 69)= -0.000000000000
  lambda( 70)= -0.000000000000
  lambda( 71)= -0.000000000000
  lambda( 72)= -0.000000000000
  lambda( 73)= -0.000000000000
  lambda( 74)= -0.000000000000
  lambda( 75)= -0.000000000000
  lambda( 76)= -0.000000000000
  lambda( 77)= -0.000000000000
  lambda( 78)= -0.000000000000
  lambda( 79)= -0.000000000000
  lambda( 80)= -0.000000000000
  lambda( 81)= -0.000000000000
  lambda( 82)= -0.000000000000
  lambda( 83)= -0.000000000000
  lambda( 84)= -0.000000000000
  lambda( 85)= -0.000000000000
  lambda( 86)= -0.000000000000
  lambda( 87)= -0.000000000000
  lambda( 88)= -0.000000000000
  lambda( 89)= -0.000000000000
  lambda( 90)= -0.000000000000
  lambda( 91)= -0.000000000000
  lambda( 92)= -0.000000000000
  lambda( 93)= -0.000000000000
  lambda( 94)= -0.000000000000
  lambda( 95)= -0.000000000000
  lambda( 96)= -0.000000000000
  lambda( 97)= -0.000000000000
  lambda( 98)=  0.000000000000
  lambda( 99)=  0.000000000000
  lambda(100)=  0.000000000000
  lambda(101)=  0.000000000000
  lambda(102)=  0.000000000000
  lambda(103)=  0.000000000000
  lambda(104)=  0.000000000000
  lambda(105)=  0.000000000000
  lambda(106)=  0.000000000000
  lambda(107)=  0.000000000000
  lambda(108)=  0.000000000000
  lambda(109)=  0.000000000000
  lambda(110)=  0.000000000000
  lambda(111)=  0.000000000000
  lambda(112)=  0.000000000000
  lambda(113)=  0.000000000000
  lambda(114)=  0.000000000000
  lambda(115)=  0.000000000000
  lambda(116)=  0.000000000000
  lambda(117)=  0.000000000000
  lambda(118)=  0.000000000000
  lambda(119)=  0.000000000000
  lambda(120)=  0.000000000000
  lambda(121)=  0.000000000000
  lambda(122)=  0.000000000000
  lambda(123)=  0.000000000000
  lambda(124)=  0.000000000000
  lambda(125)=  0.000000000000
  lambda(126)=  0.000000000000
  lambda(127)=  0.000000000000
  lambda(128)=  0.000000000000
  lambda(129)=  0.000000000000
  lambda(130)=  0.000000000000
  lambda(131)=  0.000000000000
  lambda(132)=  0.000000000000
  lambda(133)=  0.000000000000
  lambda(134)=  0.000000000000
  lambda(135)=  0.000000000000
  lambda(136)=  0.000000000000
  lambda(137)=  0.000000000000
  lambda(138)=  0.000000000000
  lambda(139)=  0.000000000000
  lambda(140)=  0.000000000000
  lambda(141)=  0.000000000000
  lambda(142)=  0.000000000000
  lambda(143)=  0.000000000000
  lambda(144)=  0.000000000000
  lambda(145)=  0.000000000000
  lambda(146)=  0.000000000000
  lambda(147)=  0.000000000000
  lambda(148)=  0.000000000000
  lambda(149)=  0.000000000000
  lambda(150)=  0.000000000000
  lambda(151)=  0.000000000000
  lambda(152)=  0.000000000000
  lambda(153)=  0.000000000000
  lambda(154)=  0.000000000000
  lambda(155)=  0.000000000000
  lambda(156)=  0.000000000000
  lambda(157)=  0.000000000000
  lambda(158)=  0.000000000000
  lambda(159)=  0.000000000000
  lambda(160)=  0.000000000000
  lambda(161)=  0.000000000000
  lambda(162)=  0.000000000000
  lambda(163)=  0.000000000000
  lambda(164)=  0.000000000000
  lambda(165)=  0.000000000000
  lambda(166)=  0.000000000000
  lambda(167)=  0.000000000000
  lambda(168)=  0.000000000000
  lambda(169)=  0.000000000000
  lambda(170)=  0.000000000000
  lambda(171)=  0.000000000000
  lambda(172)=  0.000000000000
  lambda(173)=  0.000000000000
  lambda(174)=  0.000000000000
  lambda(175)=  0.000000000000
  lambda(176)=  0.000000000000
  lambda(177)=  0.000000000000
  lambda(178)=  0.000000000000
  lambda(179)=  0.000000000000
  lambda(180)=  0.000000000000
  lambda(181)=  0.000000000000
  lambda(182)=  0.000000000000
  lambda(183)=  0.000000000000
  lambda(184)=  0.000000000000
  lambda(185)=  0.000000000000
  lambda(186)=  0.000000000000
  lambda(187)=  0.000000000000
  lambda(188)=  0.000000000000
  lambda(189)=  0.000000000000
  lambda(190)=  0.000000000000
  lambda(191)=  0.000000000000
  lambda(192)=  0.000000000000
  lambda(193)=  0.000000000000
  lambda(194)=  0.000000000000
  lambda(195)=  0.000000000000
  lambda(196)=  0.000000000000
  lambda(197)=  0.000000000000
  lambda(198)=  0.000000000000
  lambda(199)=  0.000000000000
  lambda(200)=  0.000000000000
  lambda(201)=  0.000000000000
  lambda(202)=  0.000000000220
  lambda(203)=  0.000000001247
  lambda(204)=  0.000000040150
  lambda(205)=  0.000005407494
  lambda(206)=  0.000005487273
  lambda(207)=  0.000006756679
  lambda(208)=  0.000010282661
  lambda(209)=  0.000010300036
  lambda(210)=  0.000017129525
  lambda(211)=  0.000017231783
  lambda(212)=  0.000034406868
  lambda(213)=  0.000034736280
  lambda(214)=  0.000041347001
  lambda(215)=  0.000071985085
  lambda(216)=  0.000072052820
  lambda(217)=  0.000129359819
  lambda(218)=  0.000155524825
  lambda(219)=  0.000155816508
  lambda(220)=  0.000205460716
  lambda(221)=  0.000205733054
  lambda(222)=  0.000262495892
  lambda(223)=  0.000262519240
  lambda(224)=  0.000379166977
  lambda(225)=  0.000379376289
  lambda(226)=  0.000534462227
  lambda(227)=  0.000546614660
  lambda(228)=  0.000681556865
  lambda(229)=  0.000681713422
  lambda(230)=  0.001306524579
  lambda(231)=  0.001573658848
  lambda(232)=  0.001574175990
  lambda(233)=  0.002072276869
  lambda(234)=  0.002072444839
  lambda(235)=  0.003008834533
  lambda(236)=  0.003289755471
  lambda(237)=  0.003290212974
  lambda(238)=  0.003391472945
  lambda(239)=  0.004158915197
  lambda(240)=  0.004159609491
  lambda(241)=  0.007279050701
  lambda(242)=  0.009927097280
  lambda(243)=  0.010729005175
  lambda(244)=  0.010731394584
  lambda(245)=  0.011701696921
  lambda(246)=  0.011702723059
  lambda(247)=  0.013489987818
  lambda(248)=  0.013490252083
  lambda(249)=  0.014553699895
  lambda(250)=  0.017910652412
  lambda(251)=  0.021069202917
  lambda(252)=  0.021138850332
  lambda(253)=  0.021140636080
  lambda(254)=  0.024331424831
  lambda(255)=  0.025614498651
  lambda(256)=  0.025615470941
  lambda(257)=  0.027372409537
  lambda(258)=  0.027373377569
  lambda(259)=  0.030581985463
  lambda(260)=  0.031873221208
  lambda(261)=  0.035702746875
  lambda(262)=  0.035706589892
  lambda(263)=  0.038695695462
  lambda(264)=  0.040206359151
  lambda(265)=  0.040208300836
  lambda(266)=  0.041655104752
  lambda(267)=  0.043699251018
  lambda(268)=  0.043700631588
  lambda(269)=  0.051535241509
  lambda(270)=  0.056588026525
  lambda(271)=  0.057649963883
  lambda(272)=  0.057653124525
  lambda(273)=  0.061187021344
  lambda(274)=  0.061187716796
  lambda(275)=  0.061355584299
  lambda(276)=  0.061356998647
  lambda(277)=  0.061538510104
  lambda(278)=  0.063648928547
  lambda(279)=  0.063794482142
  lambda(280)=  0.063795119699
  lambda(281)=  0.064708572189
  lambda(282)=  0.064714353027
  lambda(283)=  0.066202502350
  lambda(284)=  0.066508493174
  lambda(285)=  0.072530815537
  lambda(286)=  0.072530916426
  lambda(287)=  0.072693297306
  lambda(288)=  0.077000513861
  lambda(289)=  0.077001634408
  lambda(290)=  0.077177993217
  lambda(291)=  0.088035160181
  lambda(292)=  0.090477751974
  lambda(293)=  0.093618428821
  lambda(294)=  0.093623753605
  lambda(295)=  0.127294211140
  lambda(296)=  0.127297698645
  lambda(297)=  0.131779457372
  lambda(298)=  0.135082613747
  lambda(299)=  0.135083575943
  lambda(300)=  0.137484674515
  lambda(301)=  0.140677713476
  lambda(302)=  0.140691087670
  lambda(303)=  0.151601334494
  lambda(304)=  0.169757193029
  lambda(305)=  0.169758999207
  lambda(306)=  0.173039662944
  lambda(307)=  0.173041923344
  lambda(308)=  0.173908564789
  lambda(309)=  0.188139736983
  lambda(310)=  1.000000000000
  lambda(311)=  1.000000000000
  lambda(312)=  1.000000000000
  lambda(313)=  1.000000000000
  lambda(314)=  1.000000000000
  lambda(315)=  1.000000000000
  lambda(316)=  1.000000000000
  lambda(317)=  1.000000000000
  lambda(318)=  1.000000000000
  lambda(319)=  1.000000000000
  lambda(320)=  1.000000000000
  lambda(321)=  1.000000000000
  lambda(322)=  1.000000000000
  lambda(323)=  1.000000000000
  lambda(324)=  1.000000000000
  lambda(325)=  1.000000000000
  lambda(326)=  1.000000000000
  lambda(327)=  1.000000000000
  lambda(328)=  1.000000000000
  lambda(329)=  1.000000000000
  lambda(330)=  1.000000000000
  lambda(331)=  1.000000000000
  lambda(332)=  1.000000000000
  lambda(333)=  1.000000000000
  lambda(334)=  1.000000000000
  lambda(335)=  1.000000000000
  lambda(336)=  1.000000000000
  lambda(337)=  1.000000000000
  lambda(338)=  1.000000000000
  lambda(339)=  1.000000000000
  lambda(340)=  1.000000000000
  lambda(341)=  1.000000000000
  lambda(342)=  1.000000000000
  lambda(343)=  1.000000000000
  lambda(344)=  1.000000000000
  lambda(345)=  1.000000000000
  lambda(346)=  1.000000000000
  lambda(347)=  1.000000000000
  lambda(348)=  1.000000000000
  lambda(349)=  1.000000000000
  lambda(350)=  1.000000000000
  lambda(351)=  1.000000000000
  lambda(352)=  1.000000000000
  lambda(353)=  1.000000000000
  lambda(354)=  1.000000000000
  lambda(355)=  1.000000000000
  lambda(356)=  1.000000000000
  lambda(357)=  1.000000000000
  lambda(358)=  1.000000000000
  lambda(359)=  1.000000000000
  lambda(360)=  1.000000000000
  lambda(361)=  1.000000000000
  lambda(362)=  1.000000000000
  lambda(363)=  1.000000000000
  lambda(364)=  1.000000000000
  lambda(365)=  1.000000000000
  lambda(366)=  1.000000000000
  lambda(367)=  1.000000000000
  lambda(368)=  1.000000000000
  lambda(369)=  1.000000000000
  lambda(370)=  1.000000000000
  lambda(371)=  1.000000000000
  lambda(372)=  1.000000000000
  lambda(373)=  1.000000000000
  lambda(374)=  1.000000000000
  lambda(375)=  1.000000000000
  lambda(376)=  1.000000000000
  lambda(377)=  1.000000000000
  lambda(378)=  1.000000000000
  lambda(379)=  1.000000000000
  lambda(380)=  1.000000000000
  lambda(381)=  1.000000000000
  lambda(382)=  1.000000000000

 K-point   2 ndimwin: 382 we want the 72 leading eigenvector(s) of QPQ
  lambda(  1)= -0.000000000000
  lambda(  2)= -0.000000000000
  lambda(  3)= -0.000000000000
  lambda(  4)= -0.000000000000
  lambda(  5)= -0.000000000000
  lambda(  6)= -0.000000000000
  lambda(  7)= -0.000000000000
  lambda(  8)= -0.000000000000
  lambda(  9)= -0.000000000000
  lambda( 10)= -0.000000000000
  lambda( 11)= -0.000000000000
  lambda( 12)= -0.000000000000
  lambda( 13)= -0.000000000000
  lambda( 14)= -0.000000000000
  lambda( 15)= -0.000000000000
  lambda( 16)= -0.000000000000
  lambda( 17)= -0.000000000000
  lambda( 18)= -0.000000000000
  lambda( 19)= -0.000000000000
  lambda( 20)= -0.000000000000
  lambda( 21)= -0.000000000000
  lambda( 22)= -0.000000000000
  lambda( 23)= -0.000000000000
  lambda( 24)= -0.000000000000
  lambda( 25)= -0.000000000000
  lambda( 26)= -0.000000000000
  lambda( 27)= -0.000000000000
  lambda( 28)= -0.000000000000
  lambda( 29)= -0.000000000000
  lambda( 30)= -0.000000000000
  lambda( 31)= -0.000000000000
  lambda( 32)= -0.000000000000
  lambda( 33)= -0.000000000000
  lambda( 34)= -0.000000000000
  lambda( 35)= -0.000000000000
  lambda( 36)= -0.000000000000
  lambda( 37)= -0.000000000000
  lambda( 38)= -0.000000000000
  lambda( 39)= -0.000000000000
  lambda( 40)= -0.000000000000
  lambda( 41)= -0.000000000000
  lambda( 42)= -0.000000000000
  lambda( 43)= -0.000000000000
  lambda( 44)= -0.000000000000
  lambda( 45)= -0.000000000000
  lambda( 46)= -0.000000000000
  lambda( 47)= -0.000000000000
  lambda( 48)= -0.000000000000
  lambda( 49)= -0.000000000000
  lambda( 50)= -0.000000000000
  lambda( 51)= -0.000000000000
  lambda( 52)= -0.000000000000
  lambda( 53)= -0.000000000000
  lambda( 54)= -0.000000000000
  lambda( 55)= -0.000000000000
  lambda( 56)= -0.000000000000
  lambda( 57)= -0.000000000000
  lambda( 58)= -0.000000000000
  lambda( 59)= -0.000000000000
  lambda( 60)= -0.000000000000
  lambda( 61)= -0.000000000000
  lambda( 62)= -0.000000000000
  lambda( 63)= -0.000000000000
  lambda( 64)= -0.000000000000
  lambda( 65)= -0.000000000000
  lambda( 66)= -0.000000000000
  lambda( 67)= -0.000000000000
  lambda( 68)= -0.000000000000
  lambda( 69)= -0.000000000000
  lambda( 70)= -0.000000000000
  lambda( 71)= -0.000000000000
  lambda( 72)= -0.000000000000
  lambda( 73)= -0.000000000000
  lambda( 74)= -0.000000000000
  lambda( 75)= -0.000000000000
  lambda( 76)= -0.000000000000
  lambda( 77)= -0.000000000000
  lambda( 78)= -0.000000000000
  lambda( 79)= -0.000000000000
  lambda( 80)= -0.000000000000
  lambda( 81)= -0.000000000000
  lambda( 82)= -0.000000000000
  lambda( 83)= -0.000000000000
  lambda( 84)= -0.000000000000
  lambda( 85)= -0.000000000000
  lambda( 86)= -0.000000000000
  lambda( 87)= -0.000000000000
  lambda( 88)= -0.000000000000
  lambda( 89)= -0.000000000000
  lambda( 90)= -0.000000000000
  lambda( 91)= -0.000000000000
  lambda( 92)= -0.000000000000
  lambda( 93)= -0.000000000000
  lambda( 94)= -0.000000000000
  lambda( 95)= -0.000000000000
  lambda( 96)= -0.000000000000
  lambda( 97)= -0.000000000000
  lambda( 98)= -0.000000000000
  lambda( 99)= -0.000000000000
  lambda(100)= -0.000000000000
  lambda(101)=  0.000000000000
  lambda(102)=  0.000000000000
  lambda(103)=  0.000000000000
  lambda(104)=  0.000000000000
  lambda(105)=  0.000000000000
  lambda(106)=  0.000000000000
  lambda(107)=  0.000000000000
  lambda(108)=  0.000000000000
  lambda(109)=  0.000000000000
  lambda(110)=  0.000000000000
  lambda(111)=  0.000000000000
  lambda(112)=  0.000000000000
  lambda(113)=  0.000000000000
  lambda(114)=  0.000000000000
  lambda(115)=  0.000000000000
  lambda(116)=  0.000000000000
  lambda(117)=  0.000000000000
  lambda(118)=  0.000000000000
  lambda(119)=  0.000000000000
  lambda(120)=  0.000000000000
  lambda(121)=  0.000000000000
  lambda(122)=  0.000000000000
  lambda(123)=  0.000000000000
  lambda(124)=  0.000000000000
  lambda(125)=  0.000000000000
  lambda(126)=  0.000000000000
  lambda(127)=  0.000000000000
  lambda(128)=  0.000000000000
  lambda(129)=  0.000000000000
  lambda(130)=  0.000000000000
  lambda(131)=  0.000000000000
  lambda(132)=  0.000000000000
  lambda(133)=  0.000000000000
  lambda(134)=  0.000000000000
  lambda(135)=  0.000000000000
  lambda(136)=  0.000000000000
  lambda(137)=  0.000000000000
  lambda(138)=  0.000000000000
  lambda(139)=  0.000000000000
  lambda(140)=  0.000000000000
  lambda(141)=  0.000000000000
  lambda(142)=  0.000000000000
  lambda(143)=  0.000000000000
  lambda(144)=  0.000000000000
  lambda(145)=  0.000000000000
  lambda(146)=  0.000000000000
  lambda(147)=  0.000000000000
  lambda(148)=  0.000000000000
  lambda(149)=  0.000000000000
  lambda(150)=  0.000000000000
  lambda(151)=  0.000000000000
  lambda(152)=  0.000000000000
  lambda(153)=  0.000000000000
  lambda(154)=  0.000000000000
  lambda(155)=  0.000000000000
  lambda(156)=  0.000000000000
  lambda(157)=  0.000000000000
  lambda(158)=  0.000000000000
  lambda(159)=  0.000000000000
  lambda(160)=  0.000000000000
  lambda(161)=  0.000000000000
  lambda(162)=  0.000000000000
  lambda(163)=  0.000000000000
  lambda(164)=  0.000000000000
  lambda(165)=  0.000000000000
  lambda(166)=  0.000000000000
  lambda(167)=  0.000000000000
  lambda(168)=  0.000000000000
  lambda(169)=  0.000000000000
  lambda(170)=  0.000000000000
  lambda(171)=  0.000000000000
  lambda(172)=  0.000000000000
  lambda(173)=  0.000000000000
  lambda(174)=  0.000000000000
  lambda(175)=  0.000000000000
  lambda(176)=  0.000000000000
  lambda(177)=  0.000000000000
  lambda(178)=  0.000000000000
  lambda(179)=  0.000000000000
  lambda(180)=  0.000000000000
  lambda(181)=  0.000000000000
  lambda(182)=  0.000000000000
  lambda(183)=  0.000000000000
  lambda(184)=  0.000000000000
  lambda(185)=  0.000000000000
  lambda(186)=  0.000000000000
  lambda(187)=  0.000000000000
  lambda(188)=  0.000000000000
  lambda(189)=  0.000000000000
  lambda(190)=  0.000000000000
  lambda(191)=  0.000000000000
  lambda(192)=  0.000000000000
  lambda(193)=  0.000000000000
  lambda(194)=  0.000000000000
  lambda(195)=  0.000000000000
  lambda(196)=  0.000000000000
  lambda(197)=  0.000000000000
  lambda(198)=  0.000000000000
  lambda(199)=  0.000000000000
  lambda(200)=  0.000000000000
  lambda(201)=  0.000000000000
  lambda(202)=  0.000002541992
  lambda(203)=  0.000003392852
  lambda(204)=  0.000007279568
  lambda(205)=  0.000010716457
  lambda(206)=  0.000016951975
  lambda(207)=  0.000065130284
  lambda(208)=  0.000084280672
  lambda(209)=  0.000205894485
  lambda(210)=  0.000328854305
  lambda(211)=  0.000365230421
  lambda(212)=  0.000483446973
  lambda(213)=  0.000508268845
  lambda(214)=  0.000601887672
  lambda(215)=  0.000783420971
  lambda(216)=  0.000791364003
  lambda(217)=  0.000842724458
  lambda(218)=  0.001015196082
  lambda(219)=  0.001161991632
  lambda(220)=  0.001242649673
  lambda(221)=  0.001386832388
  lambda(222)=  0.001486255403
  lambda(223)=  0.001665157633
  lambda(224)=  0.001772053766
  lambda(225)=  0.002078056584
  lambda(226)=  0.002229801374
  lambda(227)=  0.002438813542
  lambda(228)=  0.002824753229
  lambda(229)=  0.003617297536
  lambda(230)=  0.003623572289
  lambda(231)=  0.003836094591
  lambda(232)=  0.003928182975
  lambda(233)=  0.004074620096
  lambda(234)=  0.004241012221
  lambda(235)=  0.004359306378
  lambda(236)=  0.004645953827
  lambda(237)=  0.005060343006
  lambda(238)=  0.005164577938
  lambda(239)=  0.005424691427
  lambda(240)=  0.005742930884
  lambda(241)=  0.005897642565
  lambda(242)=  0.007294116575
  lambda(243)=  0.008058311809
  lambda(244)=  0.008505198152
  lambda(245)=  0.010721262686
  lambda(246)=  0.012109226730
  lambda(247)=  0.014000039010
  lambda(248)=  0.016924617664
  lambda(249)=  0.017053652151
  lambda(250)=  0.019442198191
  lambda(251)=  0.019748920566
  lambda(252)=  0.020714595899
  lambda(253)=  0.021189847053
  lambda(254)=  0.022538307111
  lambda(255)=  0.023445362917
  lambda(256)=  0.024406828607
  lambda(257)=  0.026187277224
  lambda(258)=  0.026873321152
  lambda(259)=  0.028448527774
  lambda(260)=  0.029063104801
  lambda(261)=  0.030379204227
  lambda(262)=  0.033330355292
  lambda(263)=  0.033757190293
  lambda(264)=  0.035840726894
  lambda(265)=  0.036625220186
  lambda(266)=  0.041898292346
  lambda(267)=  0.044236285408
  lambda(268)=  0.048985605851
  lambda(269)=  0.049386416809
  lambda(270)=  0.052257239642
  lambda(271)=  0.054147308221
  lambda(272)=  0.056482549055
  lambda(273)=  0.057195360469
  lambda(274)=  0.058726081375
  lambda(275)=  0.058913066739
  lambda(276)=  0.061148394610
  lambda(277)=  0.061214311395
  lambda(278)=  0.062097737760
  lambda(279)=  0.062943649907
  lambda(280)=  0.063281797416
  lambda(281)=  0.063751603124
  lambda(282)=  0.064277429739
  lambda(283)=  0.064359721057
  lambda(284)=  0.065405815660
  lambda(285)=  0.066500585884
  lambda(286)=  0.072346131608
  lambda(287)=  0.076820790684
  lambda(288)=  0.089582512746
  lambda(289)=  0.090549254569
  lambda(290)=  0.092627259753
  lambda(291)=  0.093947703530
  lambda(292)=  0.096898928687
  lambda(293)=  0.100469726478
  lambda(294)=  0.101184358929
  lambda(295)=  0.104835755639
  lambda(296)=  0.114852517930
  lambda(297)=  0.118044994916
  lambda(298)=  0.138062172623
  lambda(299)=  0.140260674940
  lambda(300)=  0.148992041510
  lambda(301)=  0.149001815060
  lambda(302)=  0.151705585643
  lambda(303)=  0.155593285541
  lambda(304)=  0.159068101955
  lambda(305)=  0.161783890012
  lambda(306)=  0.167516859011
  lambda(307)=  0.168530334377
  lambda(308)=  0.172035295233
  lambda(309)=  0.172274034251
  lambda(310)=  0.187562169235
  lambda(311)=  1.000000000000
  lambda(312)=  1.000000000000
  lambda(313)=  1.000000000000
  lambda(314)=  1.000000000000
  lambda(315)=  1.000000000000
  lambda(316)=  1.000000000000
  lambda(317)=  1.000000000000
  lambda(318)=  1.000000000000
  lambda(319)=  1.000000000000
  lambda(320)=  1.000000000000
  lambda(321)=  1.000000000000
  lambda(322)=  1.000000000000
  lambda(323)=  1.000000000000
  lambda(324)=  1.000000000000
  lambda(325)=  1.000000000000
  lambda(326)=  1.000000000000
  lambda(327)=  1.000000000000
  lambda(328)=  1.000000000000
  lambda(329)=  1.000000000000
  lambda(330)=  1.000000000000
  lambda(331)=  1.000000000000
  lambda(332)=  1.000000000000
  lambda(333)=  1.000000000000
  lambda(334)=  1.000000000000
  lambda(335)=  1.000000000000
  lambda(336)=  1.000000000000
  lambda(337)=  1.000000000000
  lambda(338)=  1.000000000000
  lambda(339)=  1.000000000000
  lambda(340)=  1.000000000000
  lambda(341)=  1.000000000000
  lambda(342)=  1.000000000000
  lambda(343)=  1.000000000000
  lambda(344)=  1.000000000000
  lambda(345)=  1.000000000000
  lambda(346)=  1.000000000000
  lambda(347)=  1.000000000000
  lambda(348)=  1.000000000000
  lambda(349)=  1.000000000000
  lambda(350)=  1.000000000000
  lambda(351)=  1.000000000000
  lambda(352)=  1.000000000000
  lambda(353)=  1.000000000000
  lambda(354)=  1.000000000000
  lambda(355)=  1.000000000000
  lambda(356)=  1.000000000000
  lambda(357)=  1.000000000000
  lambda(358)=  1.000000000000
  lambda(359)=  1.000000000000
  lambda(360)=  1.000000000000
  lambda(361)=  1.000000000000
  lambda(362)=  1.000000000000
  lambda(363)=  1.000000000000
  lambda(364)=  1.000000000000
  lambda(365)=  1.000000000000
  lambda(366)=  1.000000000000
  lambda(367)=  1.000000000000
  lambda(368)=  1.000000000000
  lambda(369)=  1.000000000000
  lambda(370)=  1.000000000000
  lambda(371)=  1.000000000000
  lambda(372)=  1.000000000000
  lambda(373)=  1.000000000000
  lambda(374)=  1.000000000000
  lambda(375)=  1.000000000000
  lambda(376)=  1.000000000000
  lambda(377)=  1.000000000000
  lambda(378)=  1.000000000000
  lambda(379)=  1.000000000000
  lambda(380)=  1.000000000000
  lambda(381)=  1.000000000000
  lambda(382)=  1.000000000000

 K-point   3 ndimwin: 382 we want the 69 leading eigenvector(s) of QPQ
  lambda(  1)= -0.000000000000
  lambda(  2)= -0.000000000000
  lambda(  3)= -0.000000000000
  lambda(  4)= -0.000000000000
  lambda(  5)= -0.000000000000
  lambda(  6)= -0.000000000000
  lambda(  7)= -0.000000000000
  lambda(  8)= -0.000000000000
  lambda(  9)= -0.000000000000
  lambda( 10)= -0.000000000000
  lambda( 11)= -0.000000000000
  lambda( 12)= -0.000000000000
  lambda( 13)= -0.000000000000
  lambda( 14)= -0.000000000000
  lambda( 15)= -0.000000000000
  lambda( 16)= -0.000000000000
  lambda( 17)= -0.000000000000
  lambda( 18)= -0.000000000000
  lambda( 19)= -0.000000000000
  lambda( 20)= -0.000000000000
  lambda( 21)= -0.000000000000
  lambda( 22)= -0.000000000000
  lambda( 23)= -0.000000000000
  lambda( 24)= -0.000000000000
  lambda( 25)= -0.000000000000
  lambda( 26)= -0.000000000000
  lambda( 27)= -0.000000000000
  lambda( 28)= -0.000000000000
  lambda( 29)= -0.000000000000
  lambda( 30)= -0.000000000000
  lambda( 31)= -0.000000000000
  lambda( 32)= -0.000000000000
  lambda( 33)= -0.000000000000
  lambda( 34)= -0.000000000000
  lambda( 35)= -0.000000000000
  lambda( 36)= -0.000000000000
  lambda( 37)= -0.000000000000
  lambda( 38)= -0.000000000000
  lambda( 39)= -0.000000000000
  lambda( 40)= -0.000000000000
  lambda( 41)= -0.000000000000
  lambda( 42)= -0.000000000000
  lambda( 43)= -0.000000000000
  lambda( 44)= -0.000000000000
  lambda( 45)= -0.000000000000
  lambda( 46)= -0.000000000000
  lambda( 47)= -0.000000000000
  lambda( 48)= -0.000000000000
  lambda( 49)= -0.000000000000
  lambda( 50)= -0.000000000000
  lambda( 51)= -0.000000000000
  lambda( 52)= -0.000000000000
  lambda( 53)= -0.000000000000
  lambda( 54)= -0.000000000000
  lambda( 55)= -0.000000000000
  lambda( 56)= -0.000000000000
  lambda( 57)= -0.000000000000
  lambda( 58)= -0.000000000000
  lambda( 59)= -0.000000000000
  lambda( 60)= -0.000000000000
  lambda( 61)= -0.000000000000
  lambda( 62)= -0.000000000000
  lambda( 63)= -0.000000000000
  lambda( 64)= -0.000000000000
  lambda( 65)= -0.000000000000
  lambda( 66)= -0.000000000000
  lambda( 67)= -0.000000000000
  lambda( 68)= -0.000000000000
  lambda( 69)= -0.000000000000
  lambda( 70)= -0.000000000000
  lambda( 71)= -0.000000000000
  lambda( 72)= -0.000000000000
  lambda( 73)= -0.000000000000
  lambda( 74)= -0.000000000000
  lambda( 75)= -0.000000000000
  lambda( 76)= -0.000000000000
  lambda( 77)= -0.000000000000
  lambda( 78)= -0.000000000000
  lambda( 79)= -0.000000000000
  lambda( 80)= -0.000000000000
  lambda( 81)= -0.000000000000
  lambda( 82)= -0.000000000000
  lambda( 83)= -0.000000000000
  lambda( 84)= -0.000000000000
  lambda( 85)= -0.000000000000
  lambda( 86)= -0.000000000000
  lambda( 87)= -0.000000000000
  lambda( 88)= -0.000000000000
  lambda( 89)= -0.000000000000
  lambda( 90)= -0.000000000000
  lambda( 91)= -0.000000000000
  lambda( 92)= -0.000000000000
  lambda( 93)= -0.000000000000
  lambda( 94)= -0.000000000000
  lambda( 95)= -0.000000000000
  lambda( 96)= -0.000000000000
  lambda( 97)= -0.000000000000
  lambda( 98)= -0.000000000000
  lambda( 99)= -0.000000000000
  lambda(100)= -0.000000000000
  lambda(101)= -0.000000000000
  lambda(102)=  0.000000000000
  lambda(103)=  0.000000000000
  lambda(104)=  0.000000000000
  lambda(105)=  0.000000000000
  lambda(106)=  0.000000000000
  lambda(107)=  0.000000000000
  lambda(108)=  0.000000000000
  lambda(109)=  0.000000000000
  lambda(110)=  0.000000000000
  lambda(111)=  0.000000000000
  lambda(112)=  0.000000000000
  lambda(113)=  0.000000000000
  lambda(114)=  0.000000000000
  lambda(115)=  0.000000000000
  lambda(116)=  0.000000000000
  lambda(117)=  0.000000000000
  lambda(118)=  0.000000000000
  lambda(119)=  0.000000000000
  lambda(120)=  0.000000000000
  lambda(121)=  0.000000000000
  lambda(122)=  0.000000000000
  lambda(123)=  0.000000000000
  lambda(124)=  0.000000000000
  lambda(125)=  0.000000000000
  lambda(126)=  0.000000000000
  lambda(127)=  0.000000000000
  lambda(128)=  0.000000000000
  lambda(129)=  0.000000000000
  lambda(130)=  0.000000000000
  lambda(131)=  0.000000000000
  lambda(132)=  0.000000000000
  lambda(133)=  0.000000000000
  lambda(134)=  0.000000000000
  lambda(135)=  0.000000000000
  lambda(136)=  0.000000000000
  lambda(137)=  0.000000000000
  lambda(138)=  0.000000000000
  lambda(139)=  0.000000000000
  lambda(140)=  0.000000000000
  lambda(141)=  0.000000000000
  lambda(142)=  0.000000000000
  lambda(143)=  0.000000000000
  lambda(144)=  0.000000000000
  lambda(145)=  0.000000000000
  lambda(146)=  0.000000000000
  lambda(147)=  0.000000000000
  lambda(148)=  0.000000000000
  lambda(149)=  0.000000000000
  lambda(150)=  0.000000000000
  lambda(151)=  0.000000000000
  lambda(152)=  0.000000000000
  lambda(153)=  0.000000000000
  lambda(154)=  0.000000000000
  lambda(155)=  0.000000000000
  lambda(156)=  0.000000000000
  lambda(157)=  0.000000000000
  lambda(158)=  0.000000000000
  lambda(159)=  0.000000000000
  lambda(160)=  0.000000000000
  lambda(161)=  0.000000000000
  lambda(162)=  0.000000000000
  lambda(163)=  0.000000000000
  lambda(164)=  0.000000000000
  lambda(165)=  0.000000000000
  lambda(166)=  0.000000000000
  lambda(167)=  0.000000000000
  lambda(168)=  0.000000000000
  lambda(169)=  0.000000000000
  lambda(170)=  0.000000000000
  lambda(171)=  0.000000000000
  lambda(172)=  0.000000000000
  lambda(173)=  0.000000000000
  lambda(174)=  0.000000000000
  lambda(175)=  0.000000000000
  lambda(176)=  0.000000000000
  lambda(177)=  0.000000000000
  lambda(178)=  0.000000000000
  lambda(179)=  0.000000000000
  lambda(180)=  0.000000000000
  lambda(181)=  0.000000000000
  lambda(182)=  0.000000000000
  lambda(183)=  0.000000000000
  lambda(184)=  0.000000000000
  lambda(185)=  0.000000000000
  lambda(186)=  0.000000000000
  lambda(187)=  0.000000000000
  lambda(188)=  0.000000000000
  lambda(189)=  0.000000000000
  lambda(190)=  0.000000000000
  lambda(191)=  0.000000000000
  lambda(192)=  0.000000000000
  lambda(193)=  0.000000000000
  lambda(194)=  0.000000000000
  lambda(195)=  0.000000000000
  lambda(196)=  0.000000000000
  lambda(197)=  0.000000000000
  lambda(198)=  0.000000000000
  lambda(199)=  0.000000000000
  lambda(200)=  0.000000000000
  lambda(201)=  0.000000000000
  lambda(202)=  0.000001782796
  lambda(203)=  0.000003230831
  lambda(204)=  0.000004857450
  lambda(205)=  0.000015836422
  lambda(206)=  0.000035395286
  lambda(207)=  0.000055755057
  lambda(208)=  0.000067677427
  lambda(209)=  0.000148589207
  lambda(210)=  0.000301473916
  lambda(211)=  0.000392853613
  lambda(212)=  0.000492392919
  lambda(213)=  0.000496096246
  lambda(214)=  0.000968241075
  lambda(215)=  0.001082305327
  lambda(216)=  0.001352620330
  lambda(217)=  0.001367286318
  lambda(218)=  0.001496095628
  lambda(219)=  0.001497114169
  lambda(220)=  0.001961490857
  lambda(221)=  0.002008847377
  lambda(222)=  0.002240744896
  lambda(223)=  0.002500667594
  lambda(224)=  0.003121645473
  lambda(225)=  0.003416470518
  lambda(226)=  0.003519572608
  lambda(227)=  0.003717003916
  lambda(228)=  0.003869910719
  lambda(229)=  0.004109813918
  lambda(230)=  0.004366578410
  lambda(231)=  0.004393655320
  lambda(232)=  0.004925548706
  lambda(233)=  0.005694426750
  lambda(234)=  0.006993287712
  lambda(235)=  0.008077679736
  lambda(236)=  0.008396734941
  lambda(237)=  0.009077571613
  lambda(238)=  0.009903236197
  lambda(239)=  0.010060021621
  lambda(240)=  0.010884157693
  lambda(241)=  0.011813165387
  lambda(242)=  0.012256790955
  lambda(243)=  0.012497324225
  lambda(244)=  0.012604556067
  lambda(245)=  0.012792420188
  lambda(246)=  0.012890631322
  lambda(247)=  0.013228212418
  lambda(248)=  0.013642390446
  lambda(249)=  0.013875637236
  lambda(250)=  0.014609776520
  lambda(251)=  0.015613279645
  lambda(252)=  0.016290793522
  lambda(253)=  0.017313022058
  lambda(254)=  0.017714471569
  lambda(255)=  0.018049623712
  lambda(256)=  0.019131042303
  lambda(257)=  0.019847318649
  lambda(258)=  0.021925947612
  lambda(259)=  0.023962648037
  lambda(260)=  0.025916672093
  lambda(261)=  0.026154099511
  lambda(262)=  0.026860298004
  lambda(263)=  0.032304699707
  lambda(264)=  0.033657844227
  lambda(265)=  0.033691103648
  lambda(266)=  0.035497620260
  lambda(267)=  0.036319664922
  lambda(268)=  0.037859561660
  lambda(269)=  0.037937220716
  lambda(270)=  0.039199582185
  lambda(271)=  0.045531350499
  lambda(272)=  0.048211624564
  lambda(273)=  0.054877108282
  lambda(274)=  0.055408632731
  lambda(275)=  0.057438091108
  lambda(276)=  0.058145760265
  lambda(277)=  0.058298104265
  lambda(278)=  0.059736828516
  lambda(279)=  0.059824134765
  lambda(280)=  0.060581618076
  lambda(281)=  0.062355643051
  lambda(282)=  0.062632639426
  lambda(283)=  0.063595375808
  lambda(284)=  0.064976131755
  lambda(285)=  0.065802866804
  lambda(286)=  0.076235320379
  lambda(287)=  0.078463728674
  lambda(288)=  0.086388542121
  lambda(289)=  0.087657678913
  lambda(290)=  0.089734623682
  lambda(291)=  0.091031149094
  lambda(292)=  0.096853475453
  lambda(293)=  0.098075686702
  lambda(294)=  0.098354583926
  lambda(295)=  0.100522156461
  lambda(296)=  0.101715510219
  lambda(297)=  0.105596831401
  lambda(298)=  0.106878770183
  lambda(299)=  0.108343812047
  lambda(300)=  0.124974697751
  lambda(301)=  0.129512044158
  lambda(302)=  0.145694766210
  lambda(303)=  0.146221408938
  lambda(304)=  0.149275973810
  lambda(305)=  0.150829219779
  lambda(306)=  0.159113272962
  lambda(307)=  0.160101590410
  lambda(308)=  0.164719805678
  lambda(309)=  0.167228955897
  lambda(310)=  0.168696319816
  lambda(311)=  0.169683591491
  lambda(312)=  0.171574205807
  lambda(313)=  0.189795531849
  lambda(314)=  1.000000000000
  lambda(315)=  1.000000000000
  lambda(316)=  1.000000000000
  lambda(317)=  1.000000000000
  lambda(318)=  1.000000000000
  lambda(319)=  1.000000000000
  lambda(320)=  1.000000000000
  lambda(321)=  1.000000000000
  lambda(322)=  1.000000000000
  lambda(323)=  1.000000000000
  lambda(324)=  1.000000000000
  lambda(325)=  1.000000000000
  lambda(326)=  1.000000000000
  lambda(327)=  1.000000000000
  lambda(328)=  1.000000000000
  lambda(329)=  1.000000000000
  lambda(330)=  1.000000000000
[...]
  WF centre and spread   95  (  5.161625,  1.055954,  3.493839 )     1.97798070
  WF centre and spread   96  (  5.153301,  1.047163,  3.296971 )     1.93943674
  WF centre and spread   97  (  5.162333,  1.073553,  3.296357 )     1.93926156
  WF centre and spread   98  (  8.617121,  0.970120, -0.161202 )     1.97026713
  WF centre and spread   99  (  8.624586,  0.955712,  0.023591 )     1.94632561
  WF centre and spread  100  (  8.618994,  0.995102,  0.022829 )     1.93865490
  WF centre and spread  101  (  8.622521,  1.055976,  3.493859 )     1.97794295
  WF centre and spread  102  (  8.630883,  1.047152,  3.296986 )     1.93941084
  WF centre and spread  103  (  8.621843,  1.073533,  3.296357 )     1.93924291
  WF centre and spread  104  ( 12.054328,  0.995225, -0.109762 )     1.96701946
  WF centre and spread  105  ( 12.055632,  0.979713,  0.079156 )     1.94122595
  WF centre and spread  106  ( 12.056119,  1.018691,  0.077303 )     1.93767462
  WF centre and spread  107  ( 12.060407,  0.991372,  3.513073 )     1.96501881
  WF centre and spread  108  ( 12.058981,  0.979029,  3.317473 )     1.94303422
  WF centre and spread  109  ( 12.057739,  1.016875,  3.317080 )     1.94223933
  WF centre and spread  110  ( 10.357498,  3.984221, -0.161397 )     1.97023192
  WF centre and spread  111  ( 10.358619,  3.970900,  0.024883 )     1.94092538
  WF centre and spread  112  ( 10.360358,  3.999689,  0.021667 )     1.94434228
  WF centre and spread  113  ( 10.285473,  3.936157,  3.493801 )     1.97763588
  WF centre and spread  114  ( 10.294635,  3.925169,  3.294860 )     1.94195228
  WF centre and spread  115  ( 10.282097,  3.952914,  3.298489 )     1.93673651
  WF centre and spread  116  (  8.632319,  6.972404, -0.161327 )     1.96984304
  WF centre and spread  117  (  8.626900,  6.962376,  0.021313 )     1.94099874
  WF centre and spread  118  (  8.632713,  6.999631,  0.025168 )     1.94447204
  WF centre and spread  119  (  8.555175,  6.934050,  3.493511 )     1.97825580
  WF centre and spread  120  (  8.553655,  6.920198,  3.298239 )     1.93657544
  WF centre and spread  121  (  8.554298,  6.964986,  3.295395 )     1.94117828
  WF centre and spread  122  (  6.892074,  9.936710, -0.109718 )     1.96740054
  WF centre and spread  123  (  6.892093,  9.924017,  0.076438 )     1.93622644
  WF centre and spread  124  (  6.892086,  9.962091,  0.080009 )     1.94245977
  WF centre and spread  125  (  6.892073,  9.943119,  3.513033 )     1.96510016
  WF centre and spread  126  (  6.892093,  9.926224,  3.316835 )     1.94219739
  WF centre and spread  127  (  6.892086,  9.966177,  3.317776 )     1.94294261
  WF centre and spread  128  (  3.399717,  9.917589, -0.060784 )     1.95873019
  WF centre and spread  129  (  3.408088,  9.905244,  0.130529 )     1.93156401
  WF centre and spread  130  (  3.402182,  9.946120,  0.132018 )     1.93824850
  WF centre and spread  131  (  3.496313,  9.972987,  3.576081 )     1.96320915
  WF centre and spread  132  (  3.487364,  9.955298,  3.381172 )     1.95006678
  WF centre and spread  133  (  3.491323,  9.993504,  3.381108 )     1.94027457
  WF centre and spread  134  ( -0.000037,  9.897776,  0.030915 )     1.99855853
  WF centre and spread  135  (  0.000013,  9.893026,  0.192250 )     1.92221131
  WF centre and spread  136  (  0.000008,  9.937886,  0.192187 )     1.94491114
  WF centre and spread  137  (  0.000003, 10.152771,  3.719574 )     2.07564172
  WF centre and spread  138  (  0.000010, 10.179858,  3.502334 )     1.94643363
  WF centre and spread  139  ( -0.000001, 10.171268,  3.499849 )     1.99674782
  WF centre and spread  140  ( -3.399708,  9.917583, -0.060833 )     1.95867053
  WF centre and spread  141  ( -3.408063,  9.905241,  0.130541 )     1.93162587
  WF centre and spread  142  ( -3.402170,  9.946094,  0.132028 )     1.93828344
  WF centre and spread  143  ( -3.496321,  9.973000,  3.576052 )     1.96322602
  WF centre and spread  144  ( -3.487282,  9.955313,  3.381191 )     1.95005397
  WF centre and spread  145  ( -3.491320,  9.993498,  3.381114 )     1.94024848
  WF centre and spread  146  (  6.892122,  3.975146, -0.219744 )     1.97945356
  WF centre and spread  147  (  6.892075,  3.961418, -0.045521 )     1.93350792
  WF centre and spread  148  (  6.892083,  4.000152, -0.045570 )     1.93325876
  WF centre and spread  149  (  6.892090,  3.975037,  3.466287 )     1.98536319
  WF centre and spread  150  (  6.892083,  3.963403,  3.277877 )     1.92866773
  WF centre and spread  151  (  6.892085,  3.998272,  3.277930 )     1.92844698
  WF centre and spread  152  (  5.151840,  6.972419, -0.161297 )     1.96987660
  WF centre and spread  153  (  5.157282,  6.962393,  0.021335 )     1.94102752
  WF centre and spread  154  (  5.151449,  6.999648,  0.025169 )     1.94445915
  WF centre and spread  155  (  5.229016,  6.934057,  3.493548 )     1.97823906
  WF centre and spread  156  (  5.230505,  6.920205,  3.298266 )     1.93656775
  WF centre and spread  157  (  5.229881,  6.964948,  3.295433 )     1.94117541
  WF centre and spread  158  (  1.682338,  6.983871,  0.030860 )     1.99850710
  WF centre and spread  159  (  1.698050,  6.965793,  0.192208 )     1.93984902
  WF centre and spread  160  (  1.689891,  6.997083,  0.192239 )     1.92801981
  WF centre and spread  161  (  1.902899,  6.857283,  3.718197 )     2.07532535
  WF centre and spread  162  (  1.901658,  6.824354,  3.501188 )     1.98274491
  WF centre and spread  163  (  1.936989,  6.877752,  3.502390 )     1.95899242
  WF centre and spread  164  (  3.426696,  3.984203, -0.161377 )     1.97024471
  WF centre and spread  165  (  3.425580,  3.970906,  0.024878 )     1.94091981
  WF centre and spread  166  (  3.423831,  3.999659,  0.021664 )     1.94426908
  WF centre and spread  167  (  3.498671,  3.936178,  3.493824 )     1.97763907
  WF centre and spread  168  (  3.489610,  3.925171,  3.294860 )     1.94196478
  WF centre and spread  169  (  3.502065,  3.952916,  3.298505 )     1.93671614
  WF centre and spread  170  ( -0.000013,  4.028757, -0.061084 )     1.95754614
  WF centre and spread  171  ( -0.000003,  4.012365,  0.133001 )     1.94277445
  WF centre and spread  172  (  0.000004,  4.043442,  0.129838 )     1.92849371
  WF centre and spread  173  (  0.000010,  3.917403,  3.575915 )     1.96395354
  WF centre and spread  174  (  0.000007,  3.908335,  3.381063 )     1.93539304
  WF centre and spread  175  (  0.000013,  3.953078,  3.381330 )     1.95403612
  WF centre and spread  176  ( -1.682333,  6.983897,  0.030851 )     1.99850999
  WF centre and spread  177  ( -1.698053,  6.965808,  0.192207 )     1.93982532
  WF centre and spread  178  ( -1.689874,  6.997066,  0.192196 )     1.92799564
  WF centre and spread  179  ( -1.902912,  6.857279,  3.718237 )     2.07528784
  WF centre and spread  180  ( -1.901653,  6.824350,  3.501188 )     1.98273383
  WF centre and spread  181  ( -1.936971,  6.877761,  3.502370 )     1.95900717
  Sum of centres and spreads (620.288169,923.165841,330.504404 )   325.02684321
 
         Spreads (Ang^2)       Omega I      =   309.270139997
        ================       Omega D      =     0.000104485
                               Omega OD     =    15.756598610
    Final Spread (Ang^2)       Omega Total  =   325.026843092
 ------------------------------------------------------------------------------
 Final centres (translated to home cell for writing xyz file)
  WF centre    1  (  0.000012,  7.958296,  5.694277 )
  WF centre    2  ( -0.000013,  7.955713,  5.716056 )
  WF centre    3  (  0.000005,  7.960905,  5.716071 )
  WF centre    4  (  0.000017,  7.934952,  5.677172 )
  WF centre    5  ( -0.000004,  7.981649,  5.677172 )
  WF centre    6  ( -0.000000, -0.007262,  1.693708 )
  WF centre    7  ( -0.000007, -0.009927,  1.697227 )
  WF centre    8  ( -0.000005,  0.009996,  1.697161 )
  WF centre    9  (  0.000027,  0.162003,  1.695040 )
  WF centre   10  ( -0.000011, -0.153016,  1.694982 )
  WF centre   11  (  3.471356, -0.003238,  1.702219 )
  WF centre   12  (  3.469601, -0.007636,  1.703686 )
  WF centre   13  (  3.471217,  0.012373,  1.704118 )
  WF centre   14  (  3.471317,  0.163061,  1.701865 )
  WF centre   15  (  3.472357, -0.146692,  1.702286 )
  WF centre   16  (  6.892092,  0.041504,  1.670243 )
  WF centre   17  (  6.892087,  0.042999,  1.687743 )
  WF centre   18  (  6.892087,  0.078117,  1.670131 )
  WF centre   19  (  6.892103,  0.214967,  1.676254 )
  WF centre   20  (  6.892065, -0.091648,  1.676595 )
  WF centre   21  ( 10.312814, -0.003233,  1.702216 )
  WF centre   22  ( 10.314604, -0.007651,  1.703689 )
  WF centre   23  ( 10.312936,  0.012362,  1.704136 )
  WF centre   24  ( 10.312835,  0.163077,  1.701854 )
  WF centre   25  ( 10.311859, -0.146695,  1.702276 )
  WF centre   26  (  8.584664,  2.994860,  1.610736 )
  WF centre   27  (  8.587521,  2.991560,  1.617045 )
  WF centre   28  (  8.584534,  3.010850,  1.617325 )
  WF centre   29  (  8.586052,  3.162451,  1.616206 )
  WF centre   30  (  8.575870,  2.854429,  1.616053 )
  WF centre   31  (  6.892103,  5.926150,  1.610503 )
  WF centre   32  (  6.892081,  5.922937,  1.618443 )
  WF centre   33  (  6.892082,  5.947348,  1.617464 )
  WF centre   34  (  6.892115,  6.085361,  1.615447 )
  WF centre   35  (  6.892048,  5.782314,  1.615459 )
  WF centre   36  (  5.160789,  8.922813,  1.701388 )
  WF centre   37  (  5.158652,  8.919617,  1.709152 )
  WF centre   38  (  5.158947,  8.942025,  1.698893 )
  WF centre   39  (  5.163310,  9.087273,  1.703586 )
  WF centre   40  (  5.154675,  8.778388,  1.701059 )
  WF centre   41  (  1.730774,  8.949708,  1.870093 )
  WF centre   42  (  1.715369,  8.945422,  1.863667 )
  WF centre   43  (  1.728172,  8.959380,  1.862434 )
  WF centre   44  (  1.730796,  9.112826,  1.855097 )
  WF centre   45  (  1.712445,  8.801235,  1.857301 )
  WF centre   46  ( -1.730773,  8.949697,  1.870083 )
  WF centre   47  ( -1.715392,  8.945426,  1.863658 )
  WF centre   48  ( -1.728188,  8.959356,  1.862399 )
  WF centre   49  ( -1.730760,  9.112806,  1.855119 )
  WF centre   50  ( -1.712443,  8.801217,  1.857310 )
  WF centre   51  ( -5.160789,  8.922825,  1.701390 )
  WF centre   52  ( -5.158666,  8.919620,  1.709181 )
  WF centre   53  ( -5.158943,  8.942068,  1.698862 )
  WF centre   54  ( -5.163301,  9.087272,  1.703607 )
  WF centre   55  ( -5.154696,  8.778455,  1.701052 )
  WF centre   56  (  5.199488,  2.994852,  1.610708 )
  WF centre   57  (  5.196654,  2.991553,  1.617056 )
  WF centre   58  (  5.199638,  3.010825,  1.617331 )
  WF centre   59  (  5.198090,  3.162370,  1.616167 )
  WF centre   60  (  5.208311,  2.854433,  1.616031 )
  WF centre   61  (  3.486447,  5.937958,  1.670021 )
  WF centre   62  (  3.504072,  5.930444,  1.674486 )
  WF centre   63  (  3.492816,  5.946610,  1.682918 )
  WF centre   64  (  3.490103,  6.094812,  1.677043 )
  WF centre   65  (  3.503058,  5.793209,  1.676471 )
  WF centre   66  ( -0.000013,  5.954879,  1.872490 )
  WF centre   67  (  0.000002,  5.952868,  1.858598 )
  WF centre   68  ( -0.000005,  5.986851,  1.860546 )
  WF centre   69  (  0.000014,  6.133458,  1.860766 )
  WF centre   70  ( -0.000073,  5.814521,  1.856261 )
  WF centre   71  (  1.738395,  2.997103,  1.702826 )
  WF centre   72  (  1.736633,  2.994396,  1.698234 )
  WF centre   73  (  1.737787,  3.014356,  1.707919 )
  WF centre   74  (  1.737200,  3.164976,  1.701602 )
  WF centre   75  (  1.741998,  2.853488,  1.703617 )
  WF centre   76  ( -1.738375,  2.997085,  1.702803 )
  WF centre   77  ( -1.736616,  2.994405,  1.698261 )
  WF centre   78  ( -1.737774,  3.014303,  1.707922 )
  WF centre   79  ( -1.737197,  3.164923,  1.701616 )
  WF centre   80  ( -1.741986,  2.853480,  1.703628 )
  WF centre   81  ( -3.486450,  5.937937,  1.670045 )
  WF centre   82  ( -3.504035,  5.930441,  1.674428 )
  WF centre   83  ( -3.492822,  5.946619,  1.682930 )
  WF centre   84  ( -3.490095,  6.094879,  1.677012 )
  WF centre   85  ( -3.502966,  5.793243,  1.676477 )
  WF centre   86  (  1.729805,  0.995231, -0.109724 )
  WF centre   87  (  1.728578,  0.979694,  0.079157 )
  WF centre   88  (  1.728051,  1.018698,  0.077315 )
  WF centre   89  (  1.723787,  0.991398,  3.513075 )
  WF centre   90  (  1.725173,  0.979010,  3.317482 )
  WF centre   91  (  1.726442,  1.016866,  3.317078 )
  WF centre   92  (  5.167091,  0.970134, -0.161274 )
  WF centre   93  (  5.159578,  0.955729,  0.023593 )
  WF centre   94  (  5.165184,  0.995066,  0.022822 )
  WF centre   95  (  5.161625,  1.055954,  3.493839 )
  WF centre   96  (  5.153301,  1.047163,  3.296971 )
  WF centre   97  (  5.162333,  1.073553,  3.296357 )
  WF centre   98  (  8.617121,  0.970120, -0.161202 )
  WF centre   99  (  8.624586,  0.955712,  0.023591 )
  WF centre  100  (  8.618994,  0.995102,  0.022829 )
  WF centre  101  (  8.622521,  1.055976,  3.493859 )
  WF centre  102  (  8.630883,  1.047152,  3.296986 )
  WF centre  103  (  8.621843,  1.073533,  3.296357 )
  WF centre  104  ( 12.054328,  0.995225, -0.109762 )
  WF centre  105  ( 12.055632,  0.979713,  0.079156 )
  WF centre  106  ( 12.056119,  1.018691,  0.077303 )
  WF centre  107  ( 12.060407,  0.991372,  3.513073 )
  WF centre  108  ( 12.058981,  0.979029,  3.317473 )
  WF centre  109  ( 12.057739,  1.016875,  3.317080 )
  WF centre  110  ( 10.357498,  3.984221, -0.161397 )
  WF centre  111  ( 10.358619,  3.970900,  0.024883 )
  WF centre  112  ( 10.360358,  3.999689,  0.021667 )
  WF centre  113  ( 10.285473,  3.936157,  3.493801 )
  WF centre  114  ( 10.294635,  3.925169,  3.294860 )
  WF centre  115  ( 10.282097,  3.952914,  3.298489 )
  WF centre  116  (  8.632319,  6.972404, -0.161327 )
  WF centre  117  (  8.626900,  6.962376,  0.021313 )
  WF centre  118  (  8.632713,  6.999631,  0.025168 )
  WF centre  119  (  8.555175,  6.934050,  3.493511 )
  WF centre  120  (  8.553655,  6.920198,  3.298239 )
  WF centre  121  (  8.554298,  6.964986,  3.295395 )
  WF centre  122  (  6.892074,  9.936710, -0.109718 )
  WF centre  123  (  6.892093,  9.924017,  0.076438 )
  WF centre  124  (  6.892086,  9.962091,  0.080009 )
  WF centre  125  (  6.892073,  9.943119,  3.513033 )
  WF centre  126  (  6.892093,  9.926224,  3.316835 )
  WF centre  127  (  6.892086,  9.966177,  3.317776 )
  WF centre  128  (  3.399717,  9.917589, -0.060784 )
  WF centre  129  (  3.408088,  9.905244,  0.130529 )
  WF centre  130  (  3.402182,  9.946120,  0.132018 )
  WF centre  131  (  3.496313,  9.972987,  3.576081 )
  WF centre  132  (  3.487364,  9.955298,  3.381172 )
  WF centre  133  (  3.491323,  9.993504,  3.381108 )
  WF centre  134  ( -0.000037,  9.897776,  0.030915 )
  WF centre  135  (  0.000013,  9.893026,  0.192250 )
  WF centre  136  (  0.000008,  9.937886,  0.192187 )
  WF centre  137  (  0.000003, 10.152771,  3.719574 )
  WF centre  138  (  0.000010, 10.179858,  3.502334 )
  WF centre  139  ( -0.000001, 10.171268,  3.499849 )
  WF centre  140  ( -3.399708,  9.917583, -0.060833 )
  WF centre  141  ( -3.408063,  9.905241,  0.130541 )
  WF centre  142  ( -3.402170,  9.946094,  0.132028 )
  WF centre  143  ( -3.496321,  9.973000,  3.576052 )
  WF centre  144  ( -3.487282,  9.955313,  3.381191 )
  WF centre  145  ( -3.491320,  9.993498,  3.381114 )
  WF centre  146  (  6.892122,  3.975146, -0.219744 )
  WF centre  147  (  6.892075,  3.961418, -0.045521 )
  WF centre  148  (  6.892083,  4.000152, -0.045570 )
  WF centre  149  (  6.892090,  3.975037,  3.466287 )
  WF centre  150  (  6.892083,  3.963403,  3.277877 )
  WF centre  151  (  6.892085,  3.998272,  3.277930 )
  WF centre  152  (  5.151840,  6.972419, -0.161297 )
  WF centre  153  (  5.157282,  6.962393,  0.021335 )
  WF centre  154  (  5.151449,  6.999648,  0.025169 )
  WF centre  155  (  5.229016,  6.934057,  3.493548 )
  WF centre  156  (  5.230505,  6.920205,  3.298266 )
  WF centre  157  (  5.229881,  6.964948,  3.295433 )
  WF centre  158  (  1.682338,  6.983871,  0.030860 )
  WF centre  159  (  1.698050,  6.965793,  0.192208 )
  WF centre  160  (  1.689891,  6.997083,  0.192239 )
  WF centre  161  (  1.902899,  6.857283,  3.718197 )
  WF centre  162  (  1.901658,  6.824354,  3.501188 )
  WF centre  163  (  1.936989,  6.877752,  3.502390 )
  WF centre  164  (  3.426696,  3.984203, -0.161377 )
  WF centre  165  (  3.425580,  3.970906,  0.024878 )
  WF centre  166  (  3.423831,  3.999659,  0.021664 )
  WF centre  167  (  3.498671,  3.936178,  3.493824 )
  WF centre  168  (  3.489610,  3.925171,  3.294860 )
  WF centre  169  (  3.502065,  3.952916,  3.298505 )
  WF centre  170  ( -0.000013,  4.028757, -0.061084 )
  WF centre  171  ( -0.000003,  4.012365,  0.133001 )
  WF centre  172  (  0.000004,  4.043442,  0.129838 )
  WF centre  173  (  0.000010,  3.917403,  3.575915 )
  WF centre  174  (  0.000007,  3.908335,  3.381063 )
  WF centre  175  (  0.000013,  3.953078,  3.381330 )
  WF centre  176  ( -1.682333,  6.983897,  0.030851 )
  WF centre  177  ( -1.698053,  6.965808,  0.192207 )
  WF centre  178  ( -1.689874,  6.997066,  0.192196 )
  WF centre  179  ( -1.902912,  6.857279,  3.718237 )
  WF centre  180  ( -1.901653,  6.824350,  3.501188 )
  WF centre  181  ( -1.936971,  6.877761,  3.502370 )
 ------------------------------------------------------------------------------
 

 Wannier centres written to file 1Fe_centreconf.down_centres.xyz
  
  Omega Invariant:   1-s^2 =   309.270139997 (Ang^2)
                   -2log s =   314.842792105 (Ang^2)
                    acos^2 =   312.951167468 (Ang^2)
 Time for wannierise           47.886 (sec)

 Writing checkpoint file 1Fe_centreconf.down.chk... done

 *---------------------------------------------------------------------------*
 |                               PLOTTING                                    |
 *---------------------------------------------------------------------------*
 
   19 lattice points in Wigner-Seitz supercell:

      vector  -2  -2   0   degeneracy:  2
      vector  -2  -1   0   degeneracy:  1
      vector  -2   0   0   degeneracy:  2
      vector  -1  -2   0   degeneracy:  1
      vector  -1  -1   0   degeneracy:  1
      vector  -1   0   0   degeneracy:  1
      vector  -1   1   0   degeneracy:  1
      vector   0  -2   0   degeneracy:  2
      vector   0  -1   0   degeneracy:  1
      vector   0   0   0   degeneracy:  1
      vector   0   1   0   degeneracy:  1
      vector   0   2   0   degeneracy:  2
      vector   1  -1   0   degeneracy:  1
      vector   1   0   0   degeneracy:  1
      vector   1   1   0   degeneracy:  1
      vector   1   2   0   degeneracy:  1
      vector   2   0   0   degeneracy:  2
      vector   2   1   0   degeneracy:  1
      vector   2   2   0   degeneracy:  2
  tot =       16.000
  mp_grid product =           16
 
 Calculating interpolated band-structure
 
 Time to calculate interpolated band structure      23.260 (sec)
 
 Time for plotting             27.003 (sec)
 Total Execution Time         574.861 (sec)

 *===========================================================================*
 |                             TIMING INFORMATION                            |
 *===========================================================================*
 |    Tag                                                Ncalls      Time (s)|
 |---------------------------------------------------------------------------|
 |kmesh: get                                        :         1         0.033|
 |overlap: allocate                                 :         1         0.008|
 |overlap: read                                     :         1        65.657|
 |dis: main                                         :         1       434.164|
 |wann: main                                        :         1        47.886|
 |plot: main                                        :         1        27.003|
 *---------------------------------------------------------------------------*
 
 All done: wannier90 exiting
