
     Program PWSCF v.6.8 starts on 11Jul2023 at 17:53:20 

     This program is part of the open-source Quantum ESPRESSO suite
     for quantum simulation of materials; please cite
         "P. Giannozzi et al., J. Phys.:Condens. Matter 21 395502 (2009);
         "P. Giannozzi et al., J. Phys.:Condens. Matter 29 465901 (2017);
         "P. Giannozzi et al., J. Chem. Phys. 152 154105 (2020);
          URL http://www.quantum-espresso.org", 
     in publications or presentations arising from this work. More details at
     http://www.quantum-espresso.org/quote

     Parallel version (MPI & OpenMP), running on      80 processor cores
     Number of MPI processes:                80
     Threads/MPI process:                     1

     MPI processes distributed on     2 nodes
     R & G space division:  proc/nbgrp/npool/nimage =      80
     182904 MiB available memory on the printing compute node when the environment starts
 
     Reading input from 1Fe_centreconf.scf.in

     Current dimensions of program PWSCF are:
     Max number of different atomic species (ntypx) = 10
     Max number of k-points (npk) =  40000
     Max angular momentum in pseudopotentials (lmaxx) =  4
     file Cr.pbe-spn-kjpaw_psl.1.0.0.UPF: wavefunction(s)  3S 3P 3D renormalized
     file Nb.pbe-spn-kjpaw_psl.1.0.0.UPF: wavefunction(s)  4S 4P 4D renormalized
     file Se.pbe-n-kjpaw_psl.1.0.0.UPF: wavefunction(s)  4S renormalized

     Subspace diagonalization in iterative solution of the eigenvalue problem:
     one sub-group per band group will be used
     scalapack distributed-memory algorithm (size of sub-group:  8*  8 procs)

 
     Parallelization info
     --------------------
     sticks:   dense  smooth     PW     G-vecs:    dense   smooth      PW
     Min         467     174     45               125329    28766    3799
     Max         468     175     46               125336    28783    3810
     Sum       37435   13999   3643             10026649  2302489  304271
 
     Using Slab Decomposition
 


     bravais-lattice index     =            4
     lattice parameter (alat)  =      26.0483  a.u.
     unit-cell volume          =   26240.8884 (a.u.)^3
     number of atoms/cell      =           49
     number of atomic types    =            3
     number of electrons       =       414.00
     number of Kohn-Sham states=          248
     kinetic-energy cutoff     =      75.0000  Ry
     charge density cutoff     =     800.0000  Ry
     scf convergence threshold =      1.0E-07
     mixing beta               =       0.7000
     number of iterations used =            8  local-TF  mixing
     Exchange-correlation= SLA  PW   PBX  PBC
                           (   1   4   3   4   0   0   0)

     celldm(1)=  26.048308  celldm(2)=   0.000000  celldm(3)=   1.714389
     celldm(4)=   0.000000  celldm(5)=   0.000000  celldm(6)=   0.000000

     crystal axes: (cart. coord. in units of alat)
               a(1) = (   1.000000   0.000000   0.000000 )  
               a(2) = (  -0.500000   0.866025   0.000000 )  
               a(3) = (   0.000000   0.000000   1.714389 )  

     reciprocal axes: (cart. coord. in units 2 pi/alat)
               b(1) = (  1.000000  0.577350  0.000000 )  
               b(2) = (  0.000000  1.154701  0.000000 )  
               b(3) = (  0.000000  0.000000  0.583298 )  


     PseudoPot. # 1 for Cr read from file:
     /ptmp/jojaibal/YSR_Project/Cr.pbe-spn-kjpaw_psl.1.0.0.UPF
     MD5 check sum: 7e2868eaf0e426e74b90ebb04087dc43
     Pseudo is Projector augmented-wave + core cor, Zval = 14.0
     Generated using &quot;atomic&quot; code by A. Dal Corso  v.6.3
     Shape of augmentation charge: PSQ
     Using radial grid of 1183 points,  6 beta functions with: 
                l(1) =   0
                l(2) =   0
                l(3) =   1
                l(4) =   1
                l(5) =   2
                l(6) =   2
     Q(r) pseudized with 0 coefficients 


     PseudoPot. # 2 for Nb read from file:
     /ptmp/jojaibal/YSR_Project/Nb.pbe-spn-kjpaw_psl.1.0.0.UPF
     MD5 check sum: dcedcbb129af9a7271e4748e5febedb1
     Pseudo is Projector augmented-wave + core cor, Zval = 13.0
     Generated using &quot;atomic&quot; code by A. Dal Corso  v.6.2.2
     Shape of augmentation charge: PSQ
     Using radial grid of 1227 points,  6 beta functions with: 
                l(1) =   0
                l(2) =   0
                l(3) =   1
                l(4) =   1
                l(5) =   2
                l(6) =   2
     Q(r) pseudized with 0 coefficients 


     PseudoPot. # 3 for Se read from file:
     /ptmp/jojaibal/YSR_Project/Se.pbe-n-kjpaw_psl.1.0.0.UPF
     MD5 check sum: 12232cb78b362a7b0fca8da9cb95fd5e
     Pseudo is Projector augmented-wave + core cor, Zval =  6.0
     Generated using &quot;atomic&quot; code by A. Dal Corso  v.6.3
     Shape of augmentation charge: PSQ
     Using radial grid of 1211 points,  4 beta functions with: 
                l(1) =   0
                l(2) =   0
                l(3) =   1
                l(4) =   1
     Q(r) pseudized with 0 coefficients 


     atomic species   valence    mass     pseudopotential
        Cr            14.00    51.99610     Cr( 1.00)
        Nb            13.00    92.90638     Nb( 1.00)
        Se             6.00    78.96000     Se( 1.00)

     Starting magnetic structure 
     atomic species   magnetization
        Cr           0.500
        Nb           0.000
        Se           0.000


     Simplified LDA+U calculation (l_max = 2) with parameters (eV):
     atomic species    L          U    alpha       J0     beta
        Cr             2     4.0000   0.0000   0.0000   0.0000



      6 Sym. Ops. (no inversion) found



   Cartesian axes

     site n.     atom                  positions (alat units)
         1           Cr  tau(   1) = (  -0.0000000   0.5773503   0.4124525  )
         2           Nb  tau(   2) = (   0.0000000   0.0000000   0.1229160  )
         3           Se  tau(   3) = (   0.1254089   0.0724049   0.0010778  )
         4           Se  tau(   4) = (   0.1251714   0.0722677   0.2449858  )
         5           Nb  tau(   5) = (   0.2517673   0.0002084   0.1234554  )
         6           Se  tau(   6) = (   0.3747267   0.0705210  -0.0026703  )
         7           Se  tau(   7) = (   0.3744687   0.0773147   0.2432424  )
         8           Nb  tau(   8) = (   0.5000000   0.0039564   0.1214542  )
         9           Se  tau(   9) = (   0.6252733   0.0705210  -0.0026703  )
        10           Se  tau(  10) = (   0.6255313   0.0773147   0.2432424  )
        11           Nb  tau(  11) = (   0.7482327   0.0002084   0.1234554  )
        12           Se  tau(  12) = (   0.8745911   0.0724049   0.0010778  )
        13           Se  tau(  13) = (   0.8748286   0.0722677   0.2449858  )
        14           Nb  tau(  14) = (   0.6227459   0.2178078   0.1170668  )
        15           Se  tau(  15) = (   0.7515637   0.2892623  -0.0026703  )
        16           Se  tau(  16) = (   0.7458091   0.2856421   0.2432424  )
        17           Nb  tau(  17) = (   0.5000000   0.4304099   0.1170668  )
        18           Se  tau(  18) = (   0.6262904   0.5062421  -0.0026703  )
        19           Se  tau(  19) = (   0.6202779   0.5030686   0.2432424  )
        20           Nb  tau(  20) = (   0.3742968   0.6478843   0.1234554  )
        21           Se  tau(  21) = (   0.5000000   0.7212157   0.0010778  )
        22           Se  tau(  22) = (   0.5000000   0.7214900   0.2449858  )
        23           Nb  tau(  23) = (   0.1252411   0.6496583   0.1347264  )
        24           Se  tau(  24) = (   0.2466517   0.7197547   0.0051095  )
        25           Se  tau(  25) = (   0.2537864   0.7238739   0.2493858  )
        26           Nb  tau(  26) = (  -0.1252412   0.6496583   0.1347264  )
        27           Se  tau(  27) = (   0.0000000   0.7186156   0.0095953  )
        28           Se  tau(  28) = (   0.0000000   0.7417567   0.2570242  )
        29           Nb  tau(  29) = (  -0.3742968   0.6478843   0.1234554  )
        30           Se  tau(  30) = (  -0.2466517   0.7197547   0.0051095  )
        31           Se  tau(  31) = (  -0.2537864   0.7238739   0.2493858  )
        32           Nb  tau(  32) = (   0.3772541   0.2178078   0.1170668  )
        33           Se  tau(  33) = (   0.5000000   0.2886751  -0.0074067  )
        34           Se  tau(  34) = (   0.5000000   0.2886751   0.2418116  )
        35           Nb  tau(  35) = (   0.2534264   0.4310345   0.1214542  )
        36           Se  tau(  36) = (   0.3737096   0.5062421  -0.0026703  )
        37           Se  tau(  37) = (   0.3797221   0.5030686   0.2432424  )
        38           Nb  tau(  38) = (  -0.0000000   0.4327342   0.1347264  )
        39           Se  tau(  39) = (   0.1223393   0.5067176   0.0095953  )
        40           Se  tau(  40) = (   0.1423801   0.4951471   0.2570242  )
        41           Nb  tau(  41) = (   0.1260641   0.2179327   0.1234554  )
        42           Se  tau(  42) = (   0.2484363   0.2892623  -0.0026703  )
        43           Se  tau(  43) = (   0.2541909   0.2856421   0.2432424  )
        44           Nb  tau(  44) = (  -0.1260641   0.2179327   0.1234554  )
        45           Se  tau(  45) = (   0.0000000   0.2925415   0.0051095  )
        46           Se  tau(  46) = (   0.0000000   0.2843030   0.2493858  )
        47           Nb  tau(  47) = (  -0.2534264   0.4310345   0.1214542  )
        48           Se  tau(  48) = (  -0.1223393   0.5067176   0.0095953  )
        49           Se  tau(  49) = (  -0.1423801   0.4951471   0.2570242  )

     number of k points=     7  Methfessel-Paxton smearing, width (Ry)=  0.0200
                       cart. coord. in units 2pi/alat
        k(    1) = (   0.0000000   0.0000000   0.0000000), wk =   0.0277778
        k(    2) = (   0.0000000   0.1924501   0.0000000), wk =   0.1666667
        k(    3) = (   0.0000000   0.3849002   0.0000000), wk =   0.1666667
        k(    4) = (   0.0000000  -0.5773503   0.0000000), wk =   0.0833333
        k(    5) = (   0.1666667   0.2886751   0.0000000), wk =   0.1666667
        k(    6) = (   0.1666667   0.4811252   0.0000000), wk =   0.3333333
        k(    7) = (   0.3333333   0.5773503   0.0000000), wk =   0.0555556

     Dense  grid: 10026649 G-vectors     FFT dimensions: ( 240, 240, 405)

     Smooth grid:  2302489 G-vectors     FFT dimensions: ( 144, 144, 250)

     Estimated max dynamical RAM per process >     798.95 MB

     Estimated total dynamical RAM >      62.42 GB
     Generating pointlists ...
     new r_m :   0.0933 (alat units)  2.4310 (a.u.) for type    1
     new r_m :   0.0770 (alat units)  2.0050 (a.u.) for type    2
     new r_m :   0.0770 (alat units)  2.0050 (a.u.) for type    3

     Initial potential from superposition of free atoms

     starting charge  413.97586, renormalised to  414.00000

     negative rho (up, down):  1.179E-03 8.752E-04
     Number of +U iterations with fixed ns =  0
     Starting occupations:
 --- enter write_ns ---
 LDA+U parameters:
U( 1)     =  4.00000000
atom    1   Tr[ns(na)] (up, down, total) =   5.00000  0.00000  5.00000
   spin  1
    eigenvalues: 
  1.000  1.000  1.000  1.000  1.000
    eigenvectors:
  1.000  0.000  0.000  0.000  0.000
  0.000  1.000  0.000  0.000  0.000
  0.000  0.000  1.000  0.000  0.000
  0.000  0.000  0.000  1.000  0.000
  0.000  0.000  0.000  0.000  1.000
    occupations:
  1.000  0.000  0.000  0.000  0.000
  0.000  1.000  0.000  0.000  0.000
  0.000  0.000  1.000  0.000  0.000
  0.000  0.000  0.000  1.000  0.000
  0.000  0.000  0.000  0.000  1.000
   spin  2
    eigenvalues: 
  0.000  0.000  0.000  0.000  0.000
    eigenvectors:
  1.000  0.000  0.000  0.000  0.000
  0.000  1.000  0.000  0.000  0.000
  0.000  0.000  1.000  0.000  0.000
  0.000  0.000  0.000  1.000  0.000
  0.000  0.000  0.000  0.000  1.000
    occupations:
  0.000  0.000  0.000  0.000  0.000
  0.000  0.000  0.000  0.000  0.000
  0.000  0.000  0.000  0.000  0.000
  0.000  0.000  0.000  0.000  0.000
  0.000  0.000  0.000  0.000  0.000
atomic mag. moment =   5.00000
N of occupied +U levels =    5.000000
 --- exit write_ns ---
 Atomic wfc used for LDA+U Projector are NOT orthogonalized
     Starting wfcs are  346 randomized atomic wfcs
     Checking if some PAW data can be deallocated... 

     total cpu time spent up to now is      118.4 secs

     Self-consistent Calculation

     iteration #  1     ecut=    75.00 Ry     beta= 0.70
     Davidson diagonalization with overlap
     ethr =  1.00E-02,  avg # of iterations =  2.0
 --- enter write_ns ---
 LDA+U parameters:
U( 1)     =  4.00000000
atom    1   Tr[ns(na)] (up, down, total) =   4.99278  0.05268  5.04547
   spin  1
    eigenvalues: 
  0.998  0.998  0.999  0.999  0.999
    eigenvectors:
  0.000  0.000  1.000  0.000  0.000
  0.676  0.015  0.000  0.207  0.103
  0.015  0.676  0.000  0.103  0.207
  0.007  0.303  0.000  0.229  0.461
  0.303  0.007  0.000  0.461  0.229
    occupations:
  0.999 -0.000 -0.000 -0.000 -0.000
 -0.000  0.998 -0.000  0.000  0.001
 -0.000 -0.000  0.998  0.001 -0.000
 -0.000  0.000  0.001  0.999  0.000
 -0.000  0.001 -0.000  0.000  0.999
   spin  2
    eigenvalues: 
  0.004  0.004  0.007  0.019  0.019
    eigenvectors:
  0.000  0.000  1.000  0.000  0.000
  0.137  0.053  0.000  0.279  0.532
  0.053  0.137  0.000  0.532  0.279
  0.225  0.586  0.000  0.124  0.065
  0.586  0.225  0.000  0.065  0.124
    occupations:
  0.007 -0.000 -0.000 -0.000 -0.000
 -0.000  0.016 -0.000  0.000 -0.006
 -0.000 -0.000  0.016 -0.006  0.000
 -0.000  0.000 -0.006  0.007  0.000
 -0.000 -0.006  0.000  0.000  0.007
atomic mag. moment =   4.94010
N of occupied +U levels =    5.045466
 --- exit write_ns ---

     Threshold (ethr) on eigenvalues was too large:
     Diagonalizing with lowered threshold

     Davidson diagonalization with overlap
     ethr =  5.03E-04,  avg # of iterations =  2.0

     negative rho (up, down):  7.089E-07 5.765E-07

     total cpu time spent up to now is      263.8 secs

     total energy              =  -11657.75315508 Ry
     estimated scf accuracy    <       2.39213844 Ry

     total magnetization       =     5.02 Bohr mag/cell
     absolute magnetization    =     5.15 Bohr mag/cell

     iteration #  2     ecut=    75.00 Ry     beta= 0.70
     Davidson diagonalization with overlap
     ethr =  5.78E-04,  avg # of iterations =  2.0

     negative rho (up, down):  8.084E-08 9.456E-07

     total cpu time spent up to now is      335.0 secs

     total energy              =  -11657.65292757 Ry
     estimated scf accuracy    <       0.94616543 Ry

     total magnetization       =     4.95 Bohr mag/cell
     absolute magnetization    =     5.14 Bohr mag/cell

     iteration #  3     ecut=    75.00 Ry     beta= 0.70
     Davidson diagonalization with overlap
     ethr =  2.29E-04,  avg # of iterations =  2.5

     negative rho (up, down):  1.192E-07 1.075E-06

     total cpu time spent up to now is      409.6 secs

     total energy              =  -11657.68416721 Ry
     estimated scf accuracy    <       0.34779943 Ry

     total magnetization       =     4.84 Bohr mag/cell
     absolute magnetization    =     5.20 Bohr mag/cell

     iteration #  4     ecut=    75.00 Ry     beta= 0.70
     Davidson diagonalization with overlap
     ethr =  8.40E-05,  avg # of iterations =  1.6

     negative rho (up, down):  7.115E-07 6.764E-07

     total cpu time spent up to now is      478.7 secs

     total energy              =  -11657.68351901 Ry
     estimated scf accuracy    <       0.11572693 Ry

     total magnetization       =     4.79 Bohr mag/cell
     absolute magnetization    =     5.26 Bohr mag/cell

     iteration #  5     ecut=    75.00 Ry     beta= 0.70
     Davidson diagonalization with overlap
     c_bands:  2 eigenvalues not converged
     ethr =  2.80E-05,  avg # of iterations =  7.9

     negative rho (up, down):  3.547E-07 3.775E-07

     total cpu time spent up to now is      561.5 secs

     total energy              =  -11657.67469366 Ry
     estimated scf accuracy    <       0.06060207 Ry

     total magnetization       =     4.80 Bohr mag/cell
     absolute magnetization    =     5.34 Bohr mag/cell

     iteration #  6     ecut=    75.00 Ry     beta= 0.70
     Davidson diagonalization with overlap
     c_bands:  5 eigenvalues not converged
     c_bands:  5 eigenvalues not converged
     c_bands:  2 eigenvalues not converged
     c_bands:  1 eigenvalues not converged
     ethr =  1.46E-05,  avg # of iterations = 10.6

     negative rho (up, down):  1.798E-07 1.073E-04

     total cpu time spent up to now is      647.7 secs

     total energy              =  -11657.67377705 Ry
     estimated scf accuracy    <       0.02994854 Ry

     total magnetization       =     4.78 Bohr mag/cell
     absolute magnetization    =     5.41 Bohr mag/cell

     iteration #  7     ecut=    75.00 Ry     beta= 0.70
     Davidson diagonalization with overlap
     c_bands:  5 eigenvalues not converged
     c_bands:  1 eigenvalues not converged
     ethr =  7.23E-06,  avg # of iterations = 10.0

     negative rho (up, down):  1.209E-05 9.608E-04

     total cpu time spent up to now is      735.3 secs

     total energy              =  -11657.67410134 Ry
     estimated scf accuracy    <       0.01777190 Ry

     total magnetization       =     4.79 Bohr mag/cell
     absolute magnetization    =     5.46 Bohr mag/cell

     iteration #  8     ecut=    75.00 Ry     beta= 0.70
     Davidson diagonalization with overlap
     c_bands:  1 eigenvalues not converged
     c_bands:  2 eigenvalues not converged
     ethr =  4.29E-06,  avg # of iterations =  5.6

     negative rho (up, down):  1.973E-02 2.821E-02

     total cpu time spent up to now is      809.8 secs

     total energy              =  -11657.67453068 Ry
     estimated scf accuracy    <       0.01159011 Ry

     total magnetization       =     4.82 Bohr mag/cell
     absolute magnetization    =     5.48 Bohr mag/cell

     iteration #  9     ecut=    75.00 Ry     beta= 0.70
     Davidson diagonalization with overlap
     c_bands:  1 eigenvalues not converged
     c_bands:  1 eigenvalues not converged
     c_bands:  1 eigenvalues not converged
     c_bands:  1 eigenvalues not converged
     ethr =  2.80E-06,  avg # of iterations = 11.2

     negative rho (up, down):  1.539E-02 1.983E-02

     total cpu time spent up to now is      899.1 secs

     total energy              =  -11657.67298309 Ry
     estimated scf accuracy    <       0.00592066 Ry

     total magnetization       =     4.89 Bohr mag/cell
     absolute magnetization    =     5.51 Bohr mag/cell

     iteration # 10     ecut=    75.00 Ry     beta= 0.70
     Davidson diagonalization with overlap
     c_bands:  1 eigenvalues not converged
     c_bands:  1 eigenvalues not converged
     ethr =  1.43E-06,  avg # of iterations =  5.5

     negative rho (up, down):  1.549E-02 1.700E-02

     total cpu time spent up to now is      975.1 secs

     total energy              =  -11657.67218920 Ry
     estimated scf accuracy    <       0.00204547 Ry

     total magnetization       =     4.92 Bohr mag/cell
     absolute magnetization    =     5.48 Bohr mag/cell

     iteration # 11     ecut=    75.00 Ry     beta= 0.70
     Davidson diagonalization with overlap
     ethr =  4.94E-07,  avg # of iterations =  3.2

     negative rho (up, down):  7.695E-03 8.393E-03

     total cpu time spent up to now is     1049.6 secs

     total energy              =  -11657.67226761 Ry
     estimated scf accuracy    <       0.00040558 Ry

     total magnetization       =     4.98 Bohr mag/cell
     absolute magnetization    =     5.49 Bohr mag/cell

     iteration # 12     ecut=    75.00 Ry     beta= 0.70
     Davidson diagonalization with overlap
     ethr =  9.80E-08,  avg # of iterations =  2.3

     negative rho (up, down):  3.064E-03 3.231E-03

     total cpu time spent up to now is     1125.3 secs

     total energy              =  -11657.67229317 Ry
     estimated scf accuracy    <       0.00011911 Ry

     total magnetization       =     5.01 Bohr mag/cell
     absolute magnetization    =     5.52 Bohr mag/cell

     iteration # 13     ecut=    75.00 Ry     beta= 0.70
     Davidson diagonalization with overlap
     ethr =  2.88E-08,  avg # of iterations =  2.1

     negative rho (up, down):  1.284E-03 1.340E-03

     total cpu time spent up to now is     1199.8 secs

     total energy              =  -11657.67231781 Ry
     estimated scf accuracy    <       0.00004067 Ry

     total magnetization       =     5.04 Bohr mag/cell
     absolute magnetization    =     5.55 Bohr mag/cell

     iteration # 14     ecut=    75.00 Ry     beta= 0.70
     Davidson diagonalization with overlap
     ethr =  9.82E-09,  avg # of iterations =  5.5

     negative rho (up, down):  1.399E-03 1.429E-03

     total cpu time spent up to now is     1281.0 secs

     total energy              =  -11657.67234643 Ry
     estimated scf accuracy    <       0.00001457 Ry

     total magnetization       =     5.08 Bohr mag/cell
     absolute magnetization    =     5.59 Bohr mag/cell

     iteration # 15     ecut=    75.00 Ry     beta= 0.70
     Davidson diagonalization with overlap
     ethr =  3.52E-09,  avg # of iterations =  3.5

     negative rho (up, down):  6.608E-04 7.375E-04

     total cpu time spent up to now is     1362.2 secs

     total energy              =  -11657.67238703 Ry
     estimated scf accuracy    <       0.00000670 Ry

     total magnetization       =     5.10 Bohr mag/cell
     absolute magnetization    =     5.61 Bohr mag/cell

     iteration # 16     ecut=    75.00 Ry     beta= 0.70
     Davidson diagonalization with overlap
     ethr =  1.62E-09,  avg # of iterations =  6.8

     negative rho (up, down):  7.337E-04 7.978E-04

     total cpu time spent up to now is     1455.2 secs

     total energy              =  -11657.67238840 Ry
     estimated scf accuracy    <       0.00000221 Ry

     total magnetization       =     5.14 Bohr mag/cell
     absolute magnetization    =     5.66 Bohr mag/cell

     iteration # 17     ecut=    75.00 Ry     beta= 0.70
     Davidson diagonalization with overlap
     ethr =  5.35E-10,  avg # of iterations =  4.9

     negative rho (up, down):  6.689E-04 7.411E-04

     total cpu time spent up to now is     1549.5 secs

     total energy              =  -11657.67239470 Ry
     estimated scf accuracy    <       0.00000094 Ry

     total magnetization       =     5.16 Bohr mag/cell
     absolute magnetization    =     5.69 Bohr mag/cell

     iteration # 18     ecut=    75.00 Ry     beta= 0.70
     Davidson diagonalization with overlap
     ethr =  2.28E-10,  avg # of iterations =  4.1

     negative rho (up, down):  6.621E-04 7.273E-04

     total cpu time spent up to now is     1644.2 secs

     total energy              =  -11657.67239692 Ry
     estimated scf accuracy    <       0.00000061 Ry

     total magnetization       =     5.19 Bohr mag/cell
     absolute magnetization    =     5.72 Bohr mag/cell

     iteration # 19     ecut=    75.00 Ry     beta= 0.70
     Davidson diagonalization with overlap
     ethr =  1.48E-10,  avg # of iterations =  4.6

     negative rho (up, down):  6.190E-04 6.903E-04

     total cpu time spent up to now is     1746.2 secs

     total energy              =  -11657.67240195 Ry
     estimated scf accuracy    <       0.00000051 Ry

     total magnetization       =     5.21 Bohr mag/cell
     absolute magnetization    =     5.75 Bohr mag/cell

     iteration # 20     ecut=    75.00 Ry     beta= 0.70
     Davidson diagonalization with overlap
     ethr =  1.24E-10,  avg # of iterations =  5.6

     negative rho (up, down):  6.075E-04 6.797E-04

     total cpu time spent up to now is     1857.5 secs

     total energy              =  -11657.67240526 Ry
     estimated scf accuracy    <       0.00000048 Ry

     total magnetization       =     5.24 Bohr mag/cell
     absolute magnetization    =     5.79 Bohr mag/cell

     iteration # 21     ecut=    75.00 Ry     beta= 0.70
     Davidson diagonalization with overlap
     ethr =  1.15E-10,  avg # of iterations =  5.6

     negative rho (up, down):  6.040E-04 6.782E-04

     total cpu time spent up to now is     1990.3 secs

     total energy              =  -11657.67241578 Ry
     estimated scf accuracy    <       0.00000047 Ry

     total magnetization       =     5.28 Bohr mag/cell
     absolute magnetization    =     5.86 Bohr mag/cell

     iteration # 22     ecut=    75.00 Ry     beta= 0.70
     Davidson diagonalization with overlap
     ethr =  1.13E-10,  avg # of iterations =  5.7

     negative rho (up, down):  6.207E-04 6.939E-04

     total cpu time spent up to now is     2106.2 secs

     total energy              =  -11657.67239527 Ry
     estimated scf accuracy    <       0.00000045 Ry

     total magnetization       =     5.32 Bohr mag/cell
     absolute magnetization    =     5.91 Bohr mag/cell

     iteration # 23     ecut=    75.00 Ry     beta= 0.70
     Davidson diagonalization with overlap
     ethr =  1.09E-10,  avg # of iterations =  6.8

     negative rho (up, down):  6.343E-04 7.078E-04

     total cpu time spent up to now is     2261.7 secs

     total energy              =  -11657.67242763 Ry
     estimated scf accuracy    <       0.00000050 Ry

     total magnetization       =     5.42 Bohr mag/cell
     absolute magnetization    =     6.06 Bohr mag/cell

     iteration # 24     ecut=    75.00 Ry     beta= 0.70
     Davidson diagonalization with overlap
     ethr =  1.09E-10,  avg # of iterations =  6.9

     negative rho (up, down):  6.715E-04 7.483E-04

     total cpu time spent up to now is     2408.6 secs

     total energy              =  -11657.67238340 Ry
     estimated scf accuracy    <       0.00000052 Ry

     total magnetization       =     5.48 Bohr mag/cell
     absolute magnetization    =     6.16 Bohr mag/cell

     iteration # 25     ecut=    75.00 Ry     beta= 0.70
     Davidson diagonalization with overlap
     ethr =  1.09E-10,  avg # of iterations =  8.3

     negative rho (up, down):  7.226E-04 7.987E-04

     total cpu time spent up to now is     2572.4 secs

     total energy              =  -11657.67212993 Ry
     estimated scf accuracy    <       0.00000038 Ry

     total magnetization       =     5.61 Bohr mag/cell
     absolute magnetization    =     6.38 Bohr mag/cell

     iteration # 26     ecut=    75.00 Ry     beta= 0.70
     Davidson diagonalization with overlap
     ethr =  9.13E-11,  avg # of iterations = 10.9

     negative rho (up, down):  7.141E-04 7.882E-04

     total cpu time spent up to now is     2765.8 secs

     total energy              =  -11657.67248229 Ry
     estimated scf accuracy    <       0.00000440 Ry

     total magnetization       =     5.89 Bohr mag/cell
     absolute magnetization    =     6.82 Bohr mag/cell

     iteration # 27     ecut=    75.00 Ry     beta= 0.70
     Davidson diagonalization with overlap
     ethr =  9.13E-11,  avg # of iterations =  6.4

     negative rho (up, down):  6.328E-04 7.098E-04
 
     Magnetic moment per site  (integrated on atomic sphere of radius R)
     atom   1 (R=0.093)  charge= 12.7392  magn=  4.6102
     atom   2 (R=0.077)  charge= 10.0170  magn= -0.0280
     atom   3 (R=0.077)  charge=  3.9525  magn= -0.0004
     atom   4 (R=0.077)  charge=  3.9582  magn= -0.0008
     atom   5 (R=0.077)  charge= 10.0191  magn=  0.0094
     atom   6 (R=0.077)  charge=  3.9550  magn=  0.0008
     atom   7 (R=0.077)  charge=  3.9642  magn=  0.0018
     atom   8 (R=0.077)  charge= 10.0354  magn=  0.0429
     atom   9 (R=0.077)  charge=  3.9550  magn=  0.0008
     atom  10 (R=0.077)  charge=  3.9642  magn=  0.0018
     atom  11 (R=0.077)  charge= 10.0191  magn=  0.0094
     atom  12 (R=0.077)  charge=  3.9525  magn= -0.0004
     atom  13 (R=0.077)  charge=  3.9582  magn= -0.0008
     atom  14 (R=0.077)  charge= 10.0291  magn= -0.0385
     atom  15 (R=0.077)  charge=  3.9550  magn=  0.0008
     atom  16 (R=0.077)  charge=  3.9642  magn=  0.0018
     atom  17 (R=0.077)  charge= 10.0291  magn= -0.0385
     atom  18 (R=0.077)  charge=  3.9550  magn=  0.0008
     atom  19 (R=0.077)  charge=  3.9642  magn=  0.0018
     atom  20 (R=0.077)  charge= 10.0191  magn=  0.0094
     atom  21 (R=0.077)  charge=  3.9525  magn= -0.0004
     atom  22 (R=0.077)  charge=  3.9582  magn= -0.0008
     atom  23 (R=0.077)  charge=  9.9917  magn=  0.1354
     atom  24 (R=0.077)  charge=  3.9563  magn=  0.0002
     atom  25 (R=0.077)  charge=  3.9606  magn= -0.0002
     atom  26 (R=0.077)  charge=  9.9917  magn=  0.1354
     atom  27 (R=0.077)  charge=  3.9540  magn=  0.0017
     atom  28 (R=0.077)  charge=  3.9344  magn= -0.0190
     atom  29 (R=0.077)  charge= 10.0191  magn=  0.0094
     atom  30 (R=0.077)  charge=  3.9563  magn=  0.0002
     atom  31 (R=0.077)  charge=  3.9606  magn= -0.0002
     atom  32 (R=0.077)  charge= 10.0291  magn= -0.0385
     atom  33 (R=0.077)  charge=  3.9590  magn=  0.0008
     atom  34 (R=0.077)  charge=  3.9592  magn=  0.0032
     atom  35 (R=0.077)  charge= 10.0354  magn=  0.0429
     atom  36 (R=0.077)  charge=  3.9550  magn=  0.0008
     atom  37 (R=0.077)  charge=  3.9642  magn=  0.0018
     atom  38 (R=0.077)  charge=  9.9917  magn=  0.1354
     atom  39 (R=0.077)  charge=  3.9540  magn=  0.0017
     atom  40 (R=0.077)  charge=  3.9344  magn= -0.0190
     atom  41 (R=0.077)  charge= 10.0191  magn=  0.0094
     atom  42 (R=0.077)  charge=  3.9550  magn=  0.0008
     atom  43 (R=0.077)  charge=  3.9642  magn=  0.0018
     atom  44 (R=0.077)  charge= 10.0191  magn=  0.0094
     atom  45 (R=0.077)  charge=  3.9563  magn=  0.0002
     atom  46 (R=0.077)  charge=  3.9606  magn= -0.0002
     atom  47 (R=0.077)  charge= 10.0354  magn=  0.0429
     atom  48 (R=0.077)  charge=  3.9540  magn=  0.0017
     atom  49 (R=0.077)  charge=  3.9344  magn= -0.0190

     total cpu time spent up to now is     2886.0 secs

     End of self-consistent calculation
 --- enter write_ns ---
 LDA+U parameters:
U( 1)     =  4.00000000
atom    1   Tr[ns(na)] (up, down, total) =   4.96106  0.05820  5.01926
   spin  1
    eigenvalues: 
  0.990  0.990  0.993  0.994  0.994
    eigenvectors:
  0.000  0.000  1.000  0.000  0.000
  0.396  0.375  0.000  0.162  0.067
  0.375  0.396  0.000  0.067  0.162
  0.111  0.118  0.000  0.225  0.546
  0.118  0.111  0.000  0.546  0.225
    occupations:
  0.993 -0.000 -0.000 -0.000 -0.000
 -0.000  0.991 -0.000  0.000  0.002
 -0.000 -0.000  0.991  0.002 -0.000
 -0.000  0.000  0.002  0.993  0.000
 -0.000  0.002 -0.000  0.000  0.993
   spin  2
    eigenvalues: 
  0.005  0.005  0.008  0.020  0.020
    eigenvectors:
  0.000  0.000  1.000  0.000  0.000
  0.147  0.058  0.000  0.316  0.479
  0.058  0.147  0.000  0.479  0.316
  0.226  0.569  0.000  0.124  0.082
  0.569  0.226  0.000  0.082  0.124
    occupations:
  0.008 -0.000 -0.000 -0.000 -0.000
 -0.000  0.017 -0.000  0.000 -0.006
 -0.000 -0.000  0.017 -0.006  0.000
 -0.000  0.000 -0.006  0.008  0.000
 -0.000 -0.006  0.000  0.000  0.008
atomic mag. moment =   4.90286
N of occupied +U levels =    5.019255
 --- exit write_ns ---

 ------ SPIN UP ------------


          k = 0.0000 0.0000 0.0000 (287679 PWs)   bands (ev):

   -72.1108 -56.2378 -56.2296 -56.2296 -56.1466 -56.1386 -56.1386 -56.1341
   -56.1341 -56.1337 -56.1309 -56.1032 -56.1027 -56.1027 -56.0369 -56.0266
   -56.0266 -43.5996 -43.5954 -43.5954 -32.4103 -32.3994 -32.3994 -32.3508
   -32.3508 -32.3352 -32.3288 -32.3288 -32.3240 -32.3107 -32.2913 -32.2913
   -32.2744 -32.2686 -32.2686 -32.2540 -32.2451 -32.2451 -32.2362 -32.2299
   -32.2299 -32.2272 -32.2227 -32.2227 -32.2196 -32.2127 -32.2127 -32.2029
   -32.2029 -32.1928 -32.1875 -32.1803 -32.1803 -32.1771 -32.1771 -32.1718
   -32.1698 -32.1493 -32.1346 -32.1346 -32.1162 -32.1162 -32.1085 -32.0849
   -32.0849 -32.0623 -32.0590 -32.0590 -14.7665 -14.1696 -14.1696 -14.1158
   -14.1158 -14.1152 -14.0912 -13.8303 -13.5741 -13.5741 -13.5284 -13.5090
   -13.5090 -13.4963 -13.3991 -13.3991 -13.3419 -13.3311 -13.3311 -13.3235
   -13.3136 -13.3136 -13.2988 -13.1684 -13.1684 -13.1653 -13.1451 -13.1451
   -13.1326 -13.1100 -13.1100 -13.1093  -6.2143  -6.1788  -6.1788  -6.0704
    -5.5579  -5.5579  -5.5286  -5.5020  -5.4880  -5.4880  -5.3917  -5.3763
    -5.3763  -5.3532  -5.3394  -5.3394  -5.3122  -5.2877  -5.2877  -5.2026
    -5.2026  -5.1743  -5.1633  -5.1579  -5.1579  -4.7073  -4.7073  -4.5964
    -4.5053  -4.5053  -4.4797  -4.4766  -4.4766  -4.4521  -4.4285  -4.4285
    -4.3792  -4.3596  -4.3596  -4.3567  -4.1201  -4.0587  -4.0587  -4.0042
    -4.0042  -3.9920  -3.8988  -3.8988  -3.8217  -3.8217  -3.8169  -3.8023
    -3.6271  -3.6159  -3.6159  -3.5576  -3.5576  -3.5194  -3.4935  -3.4935
    -3.4347  -3.1705  -3.1705  -3.0309  -2.9233  -2.9233  -2.8803  -2.8803
    -2.8670  -2.8350  -2.8350  -2.7932  -2.7399  -2.7399  -2.7396  -2.6802
    -2.6220  -2.6220  -2.5139  -2.4778  -2.4528  -2.4528  -2.4135  -2.4135
    -2.3662  -2.3060  -2.3060  -2.2890  -2.2802  -2.2802  -2.2499  -2.2499
    -2.2470  -2.2194  -2.2192  -2.2192  -1.8932  -1.8932  -1.7890  -1.7890
    -1.7779  -1.3982  -1.3821  -1.3821  -1.3135  -1.2793  -1.2793  -1.2735
    -1.2274  -1.2274  -1.1372  -1.0337  -1.0325  -1.0325  -0.9783  -0.9783
    -0.7469  -0.5098   1.0432   1.0432   1.1826   1.1826   1.1994   1.2352
     1.2804   1.3029   1.3030   1.3030   1.3127   1.3127   1.3547   1.3905
     1.3905   1.4796   1.4841   1.4841   1.4910   1.4910   1.5359   1.6820
     1.7188   1.7188   1.7960   1.7960   1.8163   1.8389   1.8434   1.8439

          k = 0.0000 0.1925 0.0000 (287730 PWs)   bands (ev):

   -72.1108 -56.2378 -56.2296 -56.2296 -56.1466 -56.1388 -56.1387 -56.1340
   -56.1339 -56.1336 -56.1310 -56.1032 -56.1027 -56.1027 -56.0369 -56.0266
   -56.0266 -43.5996 -43.5954 -43.5954 -32.4084 -32.3979 -32.3979 -32.3510
   -32.3501 -32.3388 -32.3354 -32.3259 -32.3182 -32.3106 -32.2914 -32.2913
   -32.2827 -32.2766 -32.2712 -32.2577 -32.2470 -32.2459 -32.2374 -32.2300
   -32.2299 -32.2236 -32.2175 -32.2159 -32.2130 -32.2126 -32.2066 -32.2021
   -32.2021 -32.1934 -32.1873 -32.1817 -32.1814 -32.1773 -32.1769 -32.1707
   -32.1690 -32.1498 -32.1373 -32.1355 -32.1172 -32.1156 -32.1084 -32.0850
   -32.0849 -32.0625 -32.0603 -32.0592 -14.7465 -14.3081 -14.2244 -14.1931
   -14.0355 -14.0148 -13.9432 -13.8207 -13.6207 -13.5932 -13.5488 -13.5112
   -13.4988 -13.4615 -13.4554 -13.4356 -13.3607 -13.3430 -13.3414 -13.3199
   -13.3151 -13.2589 -13.2446 -13.1993 -13.1943 -13.1655 -13.1512 -13.1491
   -13.1279 -13.1231 -13.0876 -13.0781  -6.1773  -6.1445  -6.1350  -6.0435
    -5.6067  -5.5714  -5.5476  -5.5178  -5.4886  -5.4884  -5.4726  -5.4097
    -5.4020  -5.3762  -5.3562  -5.3468  -5.3161  -5.3087  -5.2973  -5.2778
    -5.2455  -5.1860  -5.1834  -4.9779  -4.9677  -4.7607  -4.7352  -4.6389
    -4.5876  -4.5609  -4.5320  -4.4831  -4.4803  -4.4224  -4.4056  -4.3771
    -4.3597  -4.3581  -4.3430  -4.3337  -4.1978  -4.1786  -4.1583  -3.9621
    -3.9274  -3.8731  -3.8465  -3.8263  -3.8219  -3.7978  -3.7730  -3.7631
    -3.7604  -3.7040  -3.5324  -3.5130  -3.4631  -3.4614  -3.4327  -3.3148
    -3.2883  -3.1755  -3.1651  -3.0848  -3.0406  -3.0084  -2.9971  -2.9333
    -2.8973  -2.8637  -2.8524  -2.7982  -2.7963  -2.7385  -2.7032  -2.6511
    -2.6300  -2.6070  -2.5816  -2.5490  -2.4678  -2.4554  -2.4411  -2.3894
    -2.3786  -2.3656  -2.3343  -2.3149  -2.2615  -2.2551  -2.2530  -2.2294
    -2.1416  -2.1293  -2.1126  -2.0929  -1.9541  -1.9493  -1.9092  -1.8685
    -1.7955  -1.4528  -1.3897  -1.3691  -1.3416  -1.2925  -1.2876  -1.2054
    -1.1814  -1.1701  -1.1154  -1.0889  -1.0372  -1.0241  -0.9121  -0.8641
    -0.7393  -0.5163   1.0269   1.0343   1.1554   1.1621   1.1850   1.2156
     1.2291   1.2537   1.2734   1.2949   1.3006   1.3318   1.3572   1.4152
     1.4280   1.4681   1.4782   1.4806   1.5039   1.5048   1.5700   1.6127
     1.6655   1.6910   1.7483   1.7764   1.7811   1.7814   1.8165   1.8278

          k = 0.0000 0.3849 0.0000 (287830 PWs)   bands (ev):

   -72.1108 -56.2378 -56.2296 -56.2296 -56.1465 -56.1391 -56.1388 -56.1340
   -56.1336 -56.1335 -56.1312 -56.1032 -56.1027 -56.1027 -56.0369 -56.0266
   -56.0266 -43.5996 -43.5954 -43.5954 -32.4045 -32.3945 -32.3943 -32.3536
   -32.3518 -32.3422 -32.3387 -32.3215 -32.3145 -32.3111 -32.2970 -32.2915
   -32.2914 -32.2813 -32.2774 -32.2738 -32.2486 -32.2446 -32.2343 -32.2284
   -32.2276 -32.2202 -32.2135 -32.2123 -32.2082 -32.2050 -32.2013 -32.2002
   -32.1946 -32.1937 -32.1868 -32.1857 -32.1787 -32.1772 -32.1751 -32.1681
   -32.1676 -32.1509 -32.1454 -32.1375 -32.1194 -32.1143 -32.1084 -32.0850
   -32.0849 -32.0631 -32.0631 -32.0598 -14.6874 -14.4619 -14.2709 -14.2400
   -13.9147 -13.8974 -13.8002 -13.7655 -13.6828 -13.6505 -13.6119 -13.5772
   -13.5647 -13.4693 -13.4244 -13.4212 -13.3672 -13.3454 -13.3351 -13.3169
   -13.3147 -13.2725 -13.2525 -13.1979 -13.1863 -13.1747 -13.1537 -13.1505
   -13.1309 -13.1221 -13.0596 -13.0527  -6.0774  -6.0455  -6.0032  -5.9651
    -5.7501  -5.7188  -5.6780  -5.5539  -5.5422  -5.4780  -5.4515  -5.4498
    -5.4414  -5.4331  -5.4266  -5.4133  -5.3261  -5.3117  -5.2907  -5.2646
    -5.2080  -5.2036  -5.1296  -4.8264  -4.7822  -4.7442  -4.7286  -4.6769
    -4.6308  -4.6038  -4.5955  -4.5440  -4.5145  -4.5134  -4.4678  -4.4469
    -4.4125  -4.4099  -4.3393  -4.3346  -4.2365  -4.2352  -4.0339  -3.9517
    -3.8609  -3.8065  -3.8028  -3.7560  -3.7538  -3.7205  -3.7031  -3.7013
    -3.6948  -3.5652  -3.5504  -3.4422  -3.4032  -3.3883  -3.3446  -3.2528
    -3.2372  -3.1629  -3.1507  -3.1325  -3.1056  -3.0614  -3.0112  -2.9998
    -2.9580  -2.9523  -2.8397  -2.8238  -2.7848  -2.7360  -2.7067  -2.6815
    -2.6582  -2.6006  -2.5841  -2.5544  -2.5097  -2.4961  -2.4791  -2.4667
    -2.4345  -2.4186  -2.3568  -2.3567  -2.2918  -2.2674  -2.2183  -2.2103
    -2.1794  -2.1778  -2.0510  -2.0120  -2.0080  -1.9631  -1.8803  -1.8380
    -1.8240  -1.5285  -1.4534  -1.3812  -1.3437  -1.2825  -1.2418  -1.1864
    -1.1657  -1.1340  -1.0945  -1.0503  -1.0476  -0.9168  -0.8183  -0.7403
    -0.7239  -0.5303   0.9958   1.0016   1.0856   1.0858   1.1362   1.1481
     1.1659   1.1846   1.2815   1.3081   1.3240   1.3619   1.3910   1.4348
     1.4381   1.4629   1.4853   1.5049   1.5129   1.5230   1.5596   1.5659
     1.5942   1.6420   1.6617   1.6828   1.7023   1.7330   1.7344   1.8094

          k = 0.0000-0.5774 0.0000 (287882 PWs)   bands (ev):

   -72.1108 -56.2378 -56.2296 -56.2296 -56.1464 -56.1392 -56.1388 -56.1340
   -56.1335 -56.1334 -56.1313 -56.1032 -56.1027 -56.1026 -56.0369 -56.0266
   -56.0266 -43.5996 -43.5954 -43.5954 -32.4024 -32.3925 -32.3919 -32.3561
   -32.3551 -32.3425 -32.3350 -32.3208 -32.3191 -32.3113 -32.2934 -32.2915
   -32.2914 -32.2848 -32.2837 -32.2809 -32.2511 -32.2432 -32.2307 -32.2280
   -32.2263 -32.2193 -32.2135 -32.2115 -32.2049 -32.2006 -32.1997 -32.1986
   -32.1943 -32.1941 -32.1895 -32.1867 -32.1775 -32.1769 -32.1672 -32.1671
   -32.1627 -32.1558 -32.1514 -32.1386 -32.1206 -32.1137 -32.1084 -32.0850
   -32.0849 -32.0646 -32.0634 -32.0600 -14.6016 -14.5801 -14.2869 -14.2559
   -13.8009 -13.7991 -13.7683 -13.7565 -13.7463 -13.7072 -13.6154 -13.5958
   -13.5860 -13.5483 -13.4106 -13.3815 -13.3590 -13.3589 -13.3272 -13.3177
   -13.3031 -13.2897 -13.2650 -13.2372 -13.1699 -13.1597 -13.1513 -13.1482
   -13.1315 -13.1220 -13.0494 -13.0435  -5.9555  -5.8997  -5.8967  -5.8892
    -5.8596  -5.8190  -5.8136  -5.7738  -5.5533  -5.5005  -5.4586  -5.4468
    -5.4444  -5.4425  -5.3770  -5.3738  -5.3530  -5.3458  -5.2945  -5.2450
    -5.2329  -5.2130  -4.9526  -4.9305  -4.7842  -4.7751  -4.6646  -4.6392
    -4.5992  -4.5864  -4.5626  -4.5440  -4.5197  -4.5113  -4.5000  -4.4894
    -4.4785  -4.4671  -4.4327  -4.4086  -4.2035  -4.1967  -4.0550  -3.9749
    -3.8322  -3.7820  -3.6932  -3.6727  -3.6538  -3.6386  -3.6312  -3.6214
    -3.6067  -3.6050  -3.5603  -3.5458  -3.4740  -3.4235  -3.3336  -3.3000
    -3.2449  -3.2025  -3.1884  -3.1398  -3.0867  -3.0576  -2.9880  -2.9593
    -2.9384  -2.7752  -2.7697  -2.7352  -2.7198  -2.7189  -2.6808  -2.6776
    -2.6622  -2.6391  -2.6188  -2.6064  -2.5948  -2.5583  -2.5461  -2.5097
    -2.4982  -2.4882  -2.4545  -2.4305  -2.3963  -2.2492  -2.2279  -2.2060
    -2.1605  -2.1596  -2.1324  -1.9578  -1.9436  -1.9036  -1.8768  -1.8241
    -1.7956  -1.5470  -1.4905  -1.3565  -1.3241  -1.3150  -1.2848  -1.1560
    -1.1173  -1.1148  -1.0989  -1.0514  -1.0464  -0.8612  -0.7524  -0.7389
    -0.6880  -0.5363   0.9776   0.9804   1.0439   1.0467   1.1009   1.1192
     1.1242   1.1722   1.3269   1.3319   1.3443   1.3613   1.4160   1.4272
     1.4507   1.4516   1.4749   1.5065   1.5314   1.5428   1.5548   1.5767
     1.5807   1.5836   1.5972   1.6172   1.6386   1.6777   1.7537   1.7969

          k = 0.1667 0.2887 0.0000 (287748 PWs)   bands (ev):

   -72.1108 -56.2378 -56.2296 -56.2296 -56.1465 -56.1390 -56.1388 -56.1339
   -56.1338 -56.1335 -56.1311 -56.1032 -56.1027 -56.1027 -56.0369 -56.0266
   -56.0266 -43.5996 -43.5954 -43.5954 -32.4054 -32.3959 -32.3950 -32.3529
   -32.3493 -32.3434 -32.3370 -32.3255 -32.3134 -32.3106 -32.2936 -32.2915
   -32.2913 -32.2815 -32.2796 -32.2605 -32.2519 -32.2452 -32.2394 -32.2290
   -32.2244 -32.2204 -32.2157 -32.2137 -32.2117 -32.2020 -32.2018 -32.2008
   -32.1962 -32.1942 -32.1870 -32.1831 -32.1817 -32.1776 -32.1767 -32.1688
   -32.1677 -32.1507 -32.1423 -32.1373 -32.1186 -32.1148 -32.1084 -32.0850
   -32.0849 -32.0630 -32.0621 -32.0598 -14.7070 -14.3828 -14.3651 -14.1033
   -14.0639 -13.8579 -13.8381 -13.7993 -13.6620 -13.6446 -13.6137 -13.5209
   -13.5057 -13.4852 -13.4360 -13.4292 -13.4080 -13.3581 -13.3429 -13.3081
   -13.2939 -13.2415 -13.2312 -13.2263 -13.1857 -13.1731 -13.1663 -13.1594
   -13.1305 -13.1009 -13.0802 -13.0518  -6.1122  -6.0675  -6.0539  -5.9908
    -5.6626  -5.6404  -5.6127  -5.5927  -5.5736  -5.5511  -5.4832  -5.4339
    -5.4220  -5.3970  -5.3746  -5.3604  -5.3496  -5.3229  -5.2941  -5.2861
    -5.2146  -5.1912  -5.0221  -5.0057  -4.8004  -4.7522  -4.7026  -4.6531
    -4.6072  -4.5725  -4.5359  -4.5241  -4.5065  -4.4949  -4.4790  -4.4665
    -4.4590  -4.4235  -4.4047  -4.3724  -4.1512  -4.0522  -4.0151  -4.0104
    -3.9893  -3.8631  -3.8414  -3.7974  -3.7626  -3.7320  -3.7176  -3.6068
    -3.5959  -3.5720  -3.5509  -3.5360  -3.4786  -3.4368  -3.3096  -3.2695
    -3.2051  -3.1953  -3.1545  -3.1186  -3.1136  -3.0728  -3.0491  -3.0458
    -2.9907  -2.8549  -2.8243  -2.8040  -2.7642  -2.7202  -2.6849  -2.6448
    -2.6420  -2.6258  -2.6026  -2.5701  -2.5170  -2.5166  -2.4698  -2.4215
    -2.4021  -2.3917  -2.3684  -2.3563  -2.3358  -2.2577  -2.2045  -2.1763
    -2.1376  -2.0706  -2.0516  -2.0433  -1.9906  -1.9694  -1.9462  -1.9294
    -1.8277  -1.4679  -1.4396  -1.3568  -1.3314  -1.2883  -1.2518  -1.2365
    -1.1937  -1.1570  -1.1093  -1.0318  -0.9831  -0.9395  -0.8946  -0.7660
    -0.7142  -0.5263   0.9930   1.0087   1.0616   1.1269   1.1698   1.1912
     1.2046   1.2238   1.2642   1.2865   1.2904   1.3289   1.3945   1.4266
     1.4403   1.4681   1.4747   1.4995   1.5150   1.5300   1.5606   1.5748
     1.6182   1.6573   1.6942   1.6994   1.7252   1.7449   1.7584   1.7591

          k = 0.1667 0.4811 0.0000 (287831 PWs)   bands (ev):

   -72.1108 -56.2378 -56.2296 -56.2296 -56.1464 -56.1391 -56.1389 -56.1338
   -56.1336 -56.1334 -56.1313 -56.1032 -56.1027 -56.1026 -56.0369 -56.0266
   -56.0266 -43.5996 -43.5954 -43.5954 -32.4019 -32.3937 -32.3917 -32.3553
   -32.3517 -32.3449 -32.3353 -32.3250 -32.3183 -32.3111 -32.2939 -32.2916
   -32.2912 -32.2881 -32.2824 -32.2704 -32.2532 -32.2474 -32.2364 -32.2280
   -32.2213 -32.2179 -32.2142 -32.2098 -32.2087 -32.2012 -32.2001 -32.1982
   -32.1944 -32.1936 -32.1867 -32.1828 -32.1779 -32.1769 -32.1712 -32.1668
   -32.1656 -32.1539 -32.1494 -32.1396 -32.1200 -32.1144 -32.1084 -32.0850
   -32.0849 -32.0640 -32.0633 -32.0606 -14.6300 -14.5159 -14.4074 -14.1150
   -13.9422 -13.7958 -13.7719 -13.7503 -13.7039 -13.6606 -13.6474 -13.5918
   -13.5224 -13.5050 -13.4548 -13.4299 -13.4212 -13.3705 -13.3163 -13.2967
   -13.2757 -13.2613 -13.2500 -13.2179 -13.1986 -13.1871 -13.1764 -13.1360
   -13.1194 -13.1011 -13.0664 -13.0348  -5.9944  -5.9322  -5.8931  -5.8898
    -5.8211  -5.7630  -5.7425  -5.6780  -5.6517  -5.6055  -5.5715  -5.5316
    -5.4965  -5.4385  -5.3665  -5.3341  -5.2976  -5.2930  -5.2657  -5.2351
    -5.1475  -5.0721  -5.0433  -4.8590  -4.8330  -4.7785  -4.7382  -4.6660
    -4.6469  -4.6081  -4.5831  -4.5554  -4.5385  -4.5203  -4.5049  -4.4905
    -4.4648  -4.4415  -4.4263  -4.3993  -4.2260  -4.1903  -3.9308  -3.8900
    -3.8371  -3.8138  -3.7298  -3.6965  -3.6778  -3.6482  -3.6328  -3.6113
    -3.5964  -3.5450  -3.5239  -3.4688  -3.4441  -3.3988  -3.3725  -3.3492
    -3.3070  -3.2922  -3.2181  -3.1616  -3.1231  -3.0988  -2.9830  -2.9528
    -2.9219  -2.7936  -2.7689  -2.7418  -2.7338  -2.7281  -2.6745  -2.6600
    -2.6515  -2.6286  -2.5992  -2.5800  -2.5558  -2.5439  -2.5198  -2.4867
    -2.4616  -2.4509  -2.4209  -2.3758  -2.3509  -2.3366  -2.3036  -2.2566
    -2.1844  -2.1133  -2.0785  -2.0382  -1.9813  -1.9308  -1.8983  -1.8431
    -1.7815  -1.4761  -1.4086  -1.3867  -1.3183  -1.2964  -1.2717  -1.2340
    -1.2031  -1.1869  -1.0530  -0.9916  -0.9476  -0.8690  -0.8302  -0.7501
    -0.6500  -0.5306   0.9363   0.9544   0.9999   1.0706   1.1431   1.1645
     1.1872   1.2210   1.2938   1.3039   1.3275   1.3406   1.3932   1.4053
     1.4364   1.4563   1.4854   1.5019   1.5202   1.5529   1.5671   1.5715
     1.5914   1.5989   1.6166   1.6348   1.6578   1.6829   1.7110   1.7328

          k = 0.3333 0.5774 0.0000 (287970 PWs)   bands (ev):

   -72.1108 -56.2378 -56.2296 -56.2296 -56.1464 -56.1391 -56.1390 -56.1336
   -56.1336 -56.1335 -56.1314 -56.1032 -56.1027 -56.1026 -56.0369 -56.0266
   -56.0266 -43.5996 -43.5954 -43.5954 -32.4000 -32.3941 -32.3906 -32.3527
   -32.3515 -32.3470 -32.3367 -32.3261 -32.3215 -32.3109 -32.2976 -32.2916
   -32.2912 -32.2885 -32.2737 -32.2703 -32.2614 -32.2500 -32.2365 -32.2276
   -32.2206 -32.2146 -32.2109 -32.2105 -32.2082 -32.2013 -32.2006 -32.2000
   -32.1950 -32.1931 -32.1866 -32.1780 -32.1774 -32.1726 -32.1698 -32.1661
   -32.1657 -32.1592 -32.1491 -32.1417 -32.1199 -32.1151 -32.1084 -32.0850
   -32.0850 -32.0637 -32.0634 -32.0615 -14.5539 -14.5290 -14.5203 -13.9926
   -13.9408 -13.9306 -13.7489 -13.7400 -13.6934 -13.6115 -13.5731 -13.5689
   -13.5430 -13.5293 -13.5170 -13.4561 -13.4335 -13.4174 -13.2890 -13.2712
   -13.2459 -13.2421 -13.2349 -13.2339 -13.2179 -13.2131 -13.2043 -13.1235
   -13.1035 -13.0951 -13.0729 -13.0274  -5.8776  -5.8728  -5.8186  -5.8038
    -5.7699  -5.7613  -5.7595  -5.7499  -5.7300  -5.7102  -5.7092  -5.7009
    -5.5536  -5.4219  -5.3848  -5.3812  -5.2207  -5.2127  -5.2084  -5.1785
    -4.9926  -4.9597  -4.9475  -4.9285  -4.9240  -4.9100  -4.7710  -4.7278
    -4.6519  -4.6400  -4.6105  -4.5901  -4.5611  -4.5425  -4.5423  -4.5286
    -4.4696  -4.4586  -4.4453  -4.2632  -4.1386  -4.1068  -4.1040  -3.8393
    -3.8102  -3.6979  -3.6670  -3.6646  -3.6166  -3.6108  -3.5909  -3.5764
    -3.5690  -3.5567  -3.5392  -3.5243  -3.4810  -3.4544  -3.4225  -3.3189
    -3.2626  -3.2477  -3.2323  -3.2086  -3.1955  -3.1583  -3.0504  -2.9143
    -2.9142  -2.9102  -2.8023  -2.7165  -2.6856  -2.6788  -2.6687  -2.6654
    -2.6030  -2.6008  -2.5668  -2.5274  -2.5271  -2.4707  -2.4675  -2.4473
    -2.4417  -2.4352  -2.4142  -2.4122  -2.3789  -2.3502  -2.3450  -2.3289
    -2.2841  -2.2545  -2.2108  -2.0052  -1.9729  -1.9453  -1.8452  -1.8306
    -1.7484  -1.3969  -1.3638  -1.3474  -1.3197  -1.3131  -1.3032  -1.2766
    -1.2435  -1.2422  -1.0121  -0.9395  -0.8881  -0.8783  -0.8272  -0.7745
    -0.6217  -0.5183   0.8817   0.9273   0.9758   1.0410   1.1715   1.2021
     1.2332   1.2593   1.2961   1.2990   1.3189   1.3338   1.3759   1.3775
     1.3984   1.4479   1.4685   1.5110   1.5168   1.5289   1.5300   1.6035
     1.6107   1.6179   1.6249   1.6385   1.6485   1.6660   1.6725   1.6825

 ------ SPIN DOWN ----------


          k = 0.0000 0.0000 0.0000 (287679 PWs)   bands (ev):

   -67.6942 -56.1615 -56.1373 -56.1332 -56.1332 -56.1286 -56.1276 -56.1276
   -56.1237 -56.1221 -56.1221 -56.0750 -56.0705 -56.0705 -56.0618 -56.0557
   -56.0557 -39.2284 -39.2195 -39.2195 -32.3642 -32.3583 -32.3583 -32.3157
   -32.3157 -32.3033 -32.3033 -32.2936 -32.2880 -32.2411 -32.2403 -32.2403
   -32.2359 -32.2184 -32.2184 -32.2131 -32.2102 -32.2102 -32.2096 -32.2096
   -32.2080 -32.2065 -32.1992 -32.1992 -32.1930 -32.1894 -32.1894 -32.1861
   -32.1827 -32.1689 -32.1689 -32.1544 -32.1524 -32.1524 -32.1375 -32.1343
   -32.1343 -32.1328 -32.1240 -32.1240 -32.1237 -32.1157 -32.1157 -32.0996
   -32.0996 -32.0728 -32.0682 -32.0682 -14.7651 -14.1664 -14.1664 -14.1152
   -14.1141 -14.1141 -14.0894 -13.8317 -13.5719 -13.5719 -13.5298 -13.5080
   -13.5080 -13.4972 -13.3975 -13.3975 -13.3410 -13.3300 -13.3300 -13.3218
   -13.3116 -13.3116 -13.2975 -13.1659 -13.1659 -13.1638 -13.1434 -13.1434
   -13.1312 -13.1104 -13.1104 -13.1098  -6.1904  -6.1660  -6.1660  -6.0494
    -5.5395  -5.5395  -5.5148  -5.4791  -5.4791  -5.4644  -5.3657  -5.3511
    -5.3511  -5.3341  -5.3311  -5.3311  -5.2816  -5.2734  -5.2734  -5.2006
    -5.2006  -5.1640  -5.1551  -5.1551  -5.1363  -4.5903  -4.5903  -4.5791
    -4.4943  -4.4943  -4.4787  -4.4599  -4.4599  -4.4085  -4.4053  -4.4053
    -4.3757  -4.3547  -4.3505  -4.3505  -4.0883  -4.0444  -4.0444  -3.9919
    -3.9919  -3.9736  -3.8490  -3.8490  -3.8144  -3.7967  -3.7623  -3.7623
    -3.6138  -3.5983  -3.5983  -3.5129  -3.5129  -3.4840  -3.4840  -3.4298
    -3.4258  -2.8651  -2.8651  -2.8603  -2.8550  -2.8550  -2.8078  -2.8078
    -2.7827  -2.7414  -2.7018  -2.6809  -2.6809  -2.5589  -2.5589  -2.5099
    -2.4763  -2.4757  -2.4757  -2.3572  -2.3426  -2.3426  -2.3212  -2.3097
    -2.3097  -2.2483  -2.2455  -2.2455  -2.2081  -2.2081  -2.2059  -1.8866
    -1.8866  -1.8048  -1.8048  -1.7764  -1.3467  -1.3467  -1.3349  -1.2964
    -1.2616  -1.2616  -1.2145  -1.1941  -1.1941  -1.0230  -1.0230  -1.0144
    -0.9690  -0.9690  -0.9545  -0.6407   0.7078   1.1234   1.1234   1.2201
     1.2286   1.2286   1.2837   1.2915   1.3092   1.3092   1.3357   1.3357
     1.3980   1.4256   1.4307   1.4307   1.4896   1.4896   1.5242   1.5276
     1.5276   1.5432   1.7421   1.7559   1.7559   1.8081   1.8081   1.8597
     1.8597   1.8634   1.8910   1.8910   1.9196   1.9196   1.9392   1.9392

          k = 0.0000 0.1925 0.0000 (287730 PWs)   bands (ev):

   -67.6942 -56.1615 -56.1372 -56.1335 -56.1332 -56.1289 -56.1275 -56.1270
   -56.1237 -56.1223 -56.1221 -56.0750 -56.0705 -56.0705 -56.0618 -56.0557
   -56.0557 -39.2284 -39.2195 -39.2195 -32.3617 -32.3566 -32.3555 -32.3175
   -32.3155 -32.3050 -32.3048 -32.2911 -32.2874 -32.2636 -32.2465 -32.2374
   -32.2353 -32.2224 -32.2221 -32.2166 -32.2115 -32.2102 -32.2091 -32.2062
   -32.2010 -32.2008 -32.1972 -32.1964 -32.1906 -32.1870 -32.1845 -32.1834
   -32.1746 -32.1689 -32.1687 -32.1543 -32.1525 -32.1517 -32.1402 -32.1363
   -32.1353 -32.1317 -32.1264 -32.1224 -32.1223 -32.1162 -32.1154 -32.1011
   -32.1006 -32.0730 -32.0710 -32.0686 -14.7450 -14.3061 -14.2217 -14.1920
   -14.0333 -14.0129 -13.9416 -13.8220 -13.6201 -13.5912 -13.5492 -13.5095
   -13.4977 -13.4599 -13.4552 -13.4354 -13.3597 -13.3413 -13.3401 -13.3181
   -13.3134 -13.2576 -13.2432 -13.1975 -13.1924 -13.1643 -13.1490 -13.1477
   -13.1280 -13.1225 -13.0870 -13.0780  -6.1537  -6.1319  -6.1218  -6.0224
    -5.5870  -5.5605  -5.5283  -5.4859  -5.4781  -5.4698  -5.4576  -5.3892
    -5.3869  -5.3566  -5.3501  -5.3256  -5.3057  -5.2971  -5.2677  -5.2650
    -5.2310  -5.1768  -5.1767  -4.9613  -4.9594  -4.6853  -4.6404  -4.6142
    -4.5585  -4.5251  -4.5094  -4.4667  -4.4621  -4.4124  -4.3953  -4.3589
    -4.3535  -4.3428  -4.3291  -4.3118  -4.1785  -4.1637  -4.1358  -3.9196
    -3.8854  -3.8341  -3.8319  -3.8176  -3.7865  -3.7565  -3.7516  -3.7352
    -3.7321  -3.6768  -3.5096  -3.4912  -3.4370  -3.4266  -3.4146  -3.2799
    -3.1899  -3.0401  -3.0254  -2.9868  -2.9313  -2.8749  -2.8413  -2.8355
    -2.7883  -2.7061  -2.6961  -2.6900  -2.6456  -2.6246  -2.6071  -2.5506
    -2.5020  -2.4508  -2.4191  -2.3870  -2.3804  -2.3595  -2.3492  -2.2933
    -2.2646  -2.2545  -2.2397  -2.1575  -2.1241  -2.1135  -2.0941  -1.9615
    -1.9519  -1.9110  -1.8666  -1.8051  -1.4077  -1.3702  -1.3098  -1.3075
    -1.2639  -1.2615  -1.1692  -1.1403  -1.1263  -1.0876  -1.0392  -1.0045
    -0.9863  -0.8728  -0.8294  -0.6487   0.7015   1.0966   1.1101   1.1864
     1.2009   1.2164   1.2357   1.2755   1.2816   1.3072   1.3272   1.3418
     1.3935   1.4095   1.4499   1.4701   1.4794   1.5057   1.5094   1.5201
     1.5406   1.5828   1.6733   1.6868   1.7176   1.7850   1.7954   1.8013
     1.8230   1.8372   1.8516   1.8840   1.8983   1.9117   1.9227   1.9458

          k = 0.0000 0.3849 0.0000 (287830 PWs)   bands (ev):

   -67.6942 -56.1615 -56.1368 -56.1341 -56.1333 -56.1292 -56.1273 -56.1261
   -56.1238 -56.1226 -56.1221 -56.0750 -56.0705 -56.0704 -56.0619 -56.0557
   -56.0557 -39.2284 -39.2195 -39.2195 -32.3557 -32.3524 -32.3475 -32.3237
   -32.3166 -32.3089 -32.3062 -32.2888 -32.2826 -32.2816 -32.2587 -32.2547
   -32.2349 -32.2303 -32.2255 -32.2130 -32.2115 -32.2083 -32.2040 -32.2038
   -32.1981 -32.1969 -32.1958 -32.1927 -32.1877 -32.1853 -32.1751 -32.1721
   -32.1687 -32.1687 -32.1589 -32.1533 -32.1524 -32.1495 -32.1462 -32.1394
   -32.1375 -32.1302 -32.1300 -32.1211 -32.1199 -32.1171 -32.1145 -32.1052
   -32.1031 -32.0775 -32.0733 -32.0694 -14.6859 -14.4600 -14.2682 -14.2389
   -13.9127 -13.8953 -13.8011 -13.7640 -13.6824 -13.6486 -13.6105 -13.5755
   -13.5655 -13.4681 -13.4230 -13.4202 -13.3664 -13.3438 -13.3338 -13.3151
   -13.3134 -13.2711 -13.2518 -13.1968 -13.1848 -13.1735 -13.1521 -13.1480
   -13.1306 -13.1218 -13.0588 -13.0522  -6.0544  -6.0332  -5.9886  -5.9433
    -5.7301  -5.7067  -5.6563  -5.5425  -5.5312  -5.4454  -5.4394  -5.4347
    -5.4237  -5.4183  -5.4143  -5.3968  -5.3121  -5.3000  -5.2552  -5.2522
    -5.1995  -5.1982  -5.1118  -4.7625  -4.7370  -4.7116  -4.6808  -4.6533
    -4.6122  -4.5718  -4.5648  -4.5276  -4.5060  -4.5012  -4.4527  -4.4344
    -4.4035  -4.3875  -4.3236  -4.3161  -4.2157  -4.2112  -3.9978  -3.9089
    -3.8041  -3.7832  -3.7747  -3.7405  -3.7105  -3.6976  -3.6968  -3.6806
    -3.6512  -3.5565  -3.5331  -3.4071  -3.3929  -3.3403  -3.3223  -3.1828
    -3.1421  -3.0971  -3.0910  -3.0250  -2.9934  -2.9302  -2.9175  -2.8574
    -2.7897  -2.7564  -2.7496  -2.6781  -2.6477  -2.6403  -2.5841  -2.5747
    -2.5325  -2.4998  -2.4732  -2.4544  -2.4329  -2.3612  -2.3551  -2.3120
    -2.3044  -2.2462  -2.2326  -2.2019  -2.1919  -2.0465  -2.0247  -2.0059
    -1.9648  -1.8872  -1.8402  -1.8352  -1.4840  -1.4316  -1.3345  -1.3128
    -1.2359  -1.2090  -1.1509  -1.1398  -1.0866  -1.0632  -1.0211  -1.0013
    -0.8719  -0.7534  -0.7053  -0.6778   0.6889   1.0533   1.0694   1.1119
     1.1296   1.1480   1.1750   1.1898   1.2685   1.3406   1.3494   1.3656
     1.4033   1.4281   1.4673   1.4718   1.4965   1.5105   1.5260   1.5413
     1.5441   1.5680   1.6003   1.6176   1.6743   1.6941   1.7228   1.7423
     1.7493   1.7636   1.8410   1.8466   1.8796   1.9042   1.9213   1.9313

          k = 0.0000-0.5774 0.0000 (287882 PWs)   bands (ev):

   -67.6942 -56.1615 -56.1366 -56.1344 -56.1334 -56.1293 -56.1272 -56.1257
   -56.1239 -56.1228 -56.1222 -56.0751 -56.0705 -56.0704 -56.0619 -56.0557
   -56.0557 -39.2284 -39.2195 -39.2195 -32.3517 -32.3498 -32.3413 -32.3279
   -32.3190 -32.3098 -32.3075 -32.2981 -32.2761 -32.2743 -32.2679 -32.2668
   -32.2344 -32.2336 -32.2286 -32.2138 -32.2117 -32.2049 -32.2036 -32.2006
   -32.1976 -32.1944 -32.1943 -32.1911 -32.1879 -32.1846 -32.1726 -32.1690
   -32.1668 -32.1630 -32.1567 -32.1556 -32.1505 -32.1494 -32.1437 -32.1409
   -32.1381 -32.1324 -32.1296 -32.1206 -32.1188 -32.1174 -32.1139 -32.1085
   -32.1046 -32.0812 -32.0735 -32.0698 -14.6000 -14.5784 -14.2842 -14.2548
   -13.7993 -13.7976 -13.7674 -13.7542 -13.7449 -13.7082 -13.6135 -13.5940
   -13.5859 -13.5480 -13.4090 -13.3798 -13.3584 -13.3579 -13.3253 -13.3153
   -13.3019 -13.2886 -13.2645 -13.2366 -13.1686 -13.1586 -13.1497 -13.1458
   -13.1311 -13.1218 -13.0485 -13.0428  -5.9262  -5.8949  -5.8832  -5.8695
    -5.8287  -5.8089  -5.7946  -5.7620  -5.5465  -5.4755  -5.4354  -5.4353
    -5.4300  -5.4249  -5.3648  -5.3554  -5.3414  -5.3323  -5.2557  -5.2329
    -5.2236  -5.2100  -4.9331  -4.9053  -4.6880  -4.6748  -4.6466  -4.6271
    -4.5899  -4.5792  -4.5543  -4.5316  -4.5018  -4.4975  -4.4918  -4.4728
    -4.4641  -4.4572  -4.4131  -4.3755  -4.1809  -4.1719  -4.0225  -3.9414
    -3.7549  -3.7398  -3.6722  -3.6470  -3.6334  -3.6174  -3.6060  -3.6039
    -3.5955  -3.5770  -3.5347  -3.5336  -3.4486  -3.3935  -3.3230  -3.2594
    -3.1721  -3.1052  -3.0944  -3.0588  -2.8607  -2.8364  -2.7790  -2.7578
    -2.7196  -2.7153  -2.6990  -2.6777  -2.6480  -2.6438  -2.6327  -2.5959
    -2.5920  -2.5862  -2.5506  -2.5453  -2.5328  -2.4948  -2.4601  -2.4531
    -2.2644  -2.2328  -2.2173  -2.1948  -2.1727  -2.1412  -1.9648  -1.9374
    -1.9089  -1.8903  -1.8285  -1.8051  -1.4891  -1.4811  -1.3049  -1.2922
    -1.2828  -1.2545  -1.1110  -1.0938  -1.0631  -1.0572  -1.0264  -1.0104
    -0.7680  -0.7326  -0.6999  -0.6530   0.6824   1.0335   1.0441   1.0702
     1.0871   1.1145   1.1481   1.1551   1.2774   1.3683   1.3703   1.3765
     1.4102   1.4483   1.4504   1.4830   1.4869   1.4910   1.5251   1.5554
     1.5652   1.5701   1.5995   1.6014   1.6134   1.6533   1.6630   1.6654
     1.7493   1.7667   1.8055   1.8589   1.8726   1.8925   1.9074   1.9077

          k = 0.1667 0.2887 0.0000 (287748 PWs)   bands (ev):

   -67.6942 -56.1615 -56.1369 -56.1339 -56.1333 -56.1291 -56.1274 -56.1263
   -56.1238 -56.1225 -56.1222 -56.0750 -56.0705 -56.0704 -56.0619 -56.0557
   -56.0557 -39.2284 -39.2195 -39.2195 -32.3577 -32.3523 -32.3509 -32.3200
   -32.3186 -32.3071 -32.3038 -32.2932 -32.2813 -32.2776 -32.2641 -32.2353
   -32.2345 -32.2303 -32.2283 -32.2183 -32.2129 -32.2103 -32.2047 -32.2039
   -32.1978 -32.1972 -32.1942 -32.1930 -32.1875 -32.1858 -32.1788 -32.1738
   -32.1691 -32.1682 -32.1626 -32.1535 -32.1530 -32.1506 -32.1440 -32.1402
   -32.1354 -32.1312 -32.1284 -32.1213 -32.1207 -32.1168 -32.1150 -32.1044
   -32.1023 -32.0756 -32.0729 -32.0695 -14.7054 -14.3807 -14.3633 -14.1014
   -14.0620 -13.8553 -13.8374 -13.7997 -13.6606 -13.6444 -13.6126 -13.5187
   -13.5054 -13.4845 -13.4354 -13.4277 -13.4068 -13.3564 -13.3417 -13.3070
   -13.2925 -13.2403 -13.2295 -13.2246 -13.1844 -13.1715 -13.1652 -13.1588
   -13.1293 -13.0997 -13.0801 -13.0511  -6.0909  -6.0525  -6.0405  -5.9693
    -5.6425  -5.6274  -5.5886  -5.5681  -5.5629  -5.5408  -5.4709  -5.4140
    -5.4071  -5.3876  -5.3590  -5.3416  -5.3281  -5.3090  -5.2774  -5.2688
    -5.2012  -5.1742  -5.0156  -4.9871  -4.7273  -4.6900  -4.6711  -4.6004
    -4.5717  -4.5545  -4.5253  -4.5089  -4.4962  -4.4834  -4.4612  -4.4585
    -4.4457  -4.4033  -4.3919  -4.3511  -4.1197  -4.0236  -4.0035  -3.9931
    -3.9616  -3.8108  -3.7966  -3.7585  -3.7282  -3.7088  -3.6964  -3.5919
    -3.5731  -3.5354  -3.5197  -3.5129  -3.4662  -3.4254  -3.2226  -3.2024
    -3.1882  -3.1587  -3.0756  -3.0376  -3.0236  -2.9481  -2.8833  -2.8100
    -2.7689  -2.7115  -2.6945  -2.6751  -2.6393  -2.6321  -2.6204  -2.6078
    -2.5310  -2.4887  -2.4389  -2.4211  -2.4086  -2.3918  -2.3820  -2.3620
    -2.2725  -2.2364  -2.1873  -2.1415  -2.0773  -2.0680  -2.0434  -1.9825
    -1.9769  -1.9518  -1.9401  -1.8308  -1.4371  -1.3906  -1.3231  -1.3082
    -1.2436  -1.2153  -1.2034  -1.1593  -1.1141  -1.0845  -0.9800  -0.9470
    -0.8866  -0.8699  -0.7012  -0.6669   0.6917   1.0497   1.0782   1.0882
     1.1682   1.1985   1.2299   1.2395   1.2648   1.3022   1.3085   1.3526
     1.3926   1.4371   1.4643   1.4885   1.4944   1.4996   1.5199   1.5228
     1.5470   1.5833   1.6080   1.6563   1.6766   1.7145   1.7341   1.7518
     1.7657   1.7917   1.8072   1.8286   1.8640   1.8930   1.9218   1.9366

          k = 0.1667 0.4811 0.0000 (287831 PWs)   bands (ev):

   -67.6942 -56.1615 -56.1366 -56.1344 -56.1334 -56.1292 -56.1273 -56.1257
   -56.1239 -56.1228 -56.1222 -56.0751 -56.0705 -56.0704 -56.0619 -56.0557
   -56.0557 -39.2284 -39.2195 -39.2195 -32.3531 -32.3474 -32.3433 -32.3260
   -32.3198 -32.3105 -32.3020 -32.2962 -32.2905 -32.2811 -32.2636 -32.2472
   -32.2412 -32.2343 -32.2237 -32.2197 -32.2128 -32.2114 -32.2032 -32.2006
   -32.1972 -32.1952 -32.1933 -32.1880 -32.1855 -32.1834 -32.1720 -32.1694
   -32.1680 -32.1644 -32.1564 -32.1542 -32.1501 -32.1485 -32.1455 -32.1421
   -32.1363 -32.1316 -32.1297 -32.1204 -32.1191 -32.1173 -32.1142 -32.1094
   -32.1056 -32.0798 -32.0733 -32.0705 -14.6284 -14.5141 -14.4055 -14.1131
   -13.9402 -13.7939 -13.7728 -13.7483 -13.7037 -13.6592 -13.6465 -13.5902
   -13.5215 -13.5037 -13.4532 -13.4289 -13.4202 -13.3691 -13.3150 -13.2955
   -13.2741 -13.2605 -13.2486 -13.2170 -13.1972 -13.1860 -13.1757 -13.1345
   -13.1180 -13.1002 -13.0660 -13.0339  -5.9735  -5.9178  -5.8769  -5.8672
    -5.8028  -5.7491  -5.7218  -5.6612  -5.6390  -5.5878  -5.5608  -5.5180
    -5.4782  -5.4233  -5.3497  -5.3274  -5.2808  -5.2652  -5.2514  -5.2177
    -5.1323  -5.0608  -5.0241  -4.8295  -4.8034  -4.6899  -4.6697  -4.6410
    -4.6303  -4.5913  -4.5704  -4.5424  -4.5249  -4.5061  -4.4920  -4.4783
    -4.4549  -4.4211  -4.4029  -4.3790  -4.2008  -4.1757  -3.8992  -3.8749
    -3.7606  -3.7441  -3.7024  -3.6822  -3.6608  -3.6231  -3.6127  -3.5858
    -3.5770  -3.5288  -3.4889  -3.4467  -3.4224  -3.3863  -3.3268  -3.3168
    -3.2826  -3.2617  -3.1385  -3.0462  -2.8740  -2.8496  -2.7717  -2.7477
    -2.7389  -2.7204  -2.6926  -2.6644  -2.6429  -2.6368  -2.6206  -2.5929
    -2.5750  -2.5487  -2.5132  -2.4985  -2.4800  -2.4521  -2.3991  -2.3554
    -2.3487  -2.3361  -2.2928  -2.1860  -2.1273  -2.0922  -2.0461  -1.9847
    -1.9439  -1.8993  -1.8504  -1.7870  -1.4353  -1.3863  -1.3436  -1.2742
    -1.2666  -1.2370  -1.2122  -1.1684  -1.1491  -1.0057  -0.9265  -0.9191
    -0.8171  -0.7951  -0.7150  -0.5991   0.6806   0.9857   1.0036   1.0309
     1.1308   1.1859   1.2039   1.2177   1.2785   1.3225   1.3387   1.3748
     1.3860   1.4186   1.4410   1.4739   1.4836   1.5102   1.5208   1.5460
     1.5744   1.5895   1.5971   1.6123   1.6252   1.6467   1.6780   1.7052
     1.7123   1.7363   1.7601   1.8013   1.8148   1.8441   1.9061   1.9676

          k = 0.3333 0.5774 0.0000 (287970 PWs)   bands (ev):

   -67.6942 -56.1615 -56.1365 -56.1345 -56.1335 -56.1291 -56.1273 -56.1254
   -56.1239 -56.1229 -56.1222 -56.0751 -56.0705 -56.0704 -56.0619 -56.0557
   -56.0557 -39.2284 -39.2195 -39.2195 -32.3516 -32.3436 -32.3420 -32.3262
   -32.3216 -32.3080 -32.3025 -32.2965 -32.2959 -32.2916 -32.2489 -32.2449
   -32.2435 -32.2396 -32.2340 -32.2191 -32.2132 -32.2106 -32.2027 -32.1987
   -32.1964 -32.1955 -32.1940 -32.1880 -32.1847 -32.1786 -32.1709 -32.1695
   -32.1631 -32.1630 -32.1617 -32.1521 -32.1495 -32.1495 -32.1441 -32.1401
   -32.1345 -32.1318 -32.1298 -32.1197 -32.1188 -32.1174 -32.1138 -32.1130
   -32.1090 -32.0796 -32.0735 -32.0715 -14.5524 -14.5264 -14.5192 -13.9906
   -13.9382 -13.9288 -13.7519 -13.7383 -13.6928 -13.6092 -13.5708 -13.5676
   -13.5413 -13.5285 -13.5153 -13.4546 -13.4319 -13.4182 -13.2870 -13.2692
   -13.2437 -13.2417 -13.2340 -13.2333 -13.2175 -13.2111 -13.2043 -13.1220
   -13.1017 -13.0938 -13.0732 -13.0264  -5.8575  -5.8476  -5.8152  -5.7590
    -5.7533  -5.7401  -5.7359  -5.7317  -5.7188  -5.7095  -5.7053  -5.6905
    -5.5362  -5.3929  -5.3789  -5.3758  -5.2098  -5.1984  -5.1867  -5.1519
    -4.9633  -4.9469  -4.9421  -4.9039  -4.8954  -4.8918  -4.6788  -4.6435
    -4.6368  -4.6199  -4.5912  -4.5809  -4.5474  -4.5378  -4.5368  -4.5118
    -4.4440  -4.4392  -4.4280  -4.2417  -4.1200  -4.0960  -4.0958  -3.7410
    -3.7338  -3.6756  -3.6596  -3.6415  -3.6041  -3.5819  -3.5650  -3.5505
    -3.5414  -3.5198  -3.5191  -3.5116  -3.4529  -3.4465  -3.4115  -3.2589
    -3.2575  -3.1864  -3.1495  -3.1443  -3.1266  -2.8948  -2.7664  -2.7331
    -2.6799  -2.6735  -2.6707  -2.6631  -2.6177  -2.5952  -2.5902  -2.5209
    -2.5097  -2.5080  -2.4713  -2.4403  -2.4400  -2.4397  -2.4388  -2.3799
    -2.3523  -2.3450  -2.3396  -2.3278  -2.2870  -2.2503  -2.0027  -1.9847
    -1.9696  -1.8423  -1.8416  -1.7530  -1.3322  -1.3264  -1.3191  -1.3006
    -1.2906  -1.2798  -1.2348  -1.2165  -1.2075  -0.9239  -0.8875  -0.8634
    -0.8261  -0.7907  -0.7695  -0.5471   0.6750   0.9281   0.9720   1.0034
     1.1262   1.2319   1.2538   1.2705   1.2888   1.3139   1.3378   1.3487
     1.3513   1.3977   1.4231   1.4273   1.4801   1.4991   1.5169   1.5476
     1.5610   1.5737   1.6169   1.6282   1.6597   1.6598   1.6689   1.6946
     1.6997   1.7066   1.7102   1.7335   1.7638   1.8003   1.9189   2.0730

     the Fermi energy is    -1.1141 ev

!    total energy              =  -11657.67249072 Ry

     total all-electron energy =   -279870.081945 Ry
     estimated scf accuracy    <       0.00000007 Ry
     smearing contrib. (-TS)   =      -0.01434330 Ry
     internal energy E=F+TS    =  -11657.65814743 Ry

     The total energy is F=E-TS. E is the sum of the following terms:
     one-electron contribution =  -17737.21987128 Ry
     hartree contribution      =    8906.52738002 Ry
     xc contribution           =    -525.59732876 Ry
     ewald contribution        =    6695.50251429 Ry
     Hubbard energy            =       0.01409974 Ry
     one-center paw contrib.   =   -8996.88494143 Ry

     total magnetization       =     5.84 Bohr mag/cell
     absolute magnetization    =     6.76 Bohr mag/cell

     convergence has been achieved in  27 iterations

     Writing output data file ./tmp/adatom.save/
 
     init_run     :     78.52s CPU    106.66s WALL (       1 calls)
     electrons    :   2741.09s CPU   2768.39s WALL (       1 calls)

     Called by init_run:
     wfcinit      :     41.12s CPU     44.79s WALL (       1 calls)
     potinit      :     11.95s CPU     21.17s WALL (       1 calls)
     hinit0       :     16.77s CPU     31.34s WALL (       1 calls)

     Called by electrons:
     c_bands      :   2141.85s CPU   2150.09s WALL (      28 calls)
     sum_band     :    349.98s CPU    359.00s WALL (      28 calls)
     v_of_rho     :     38.29s CPU     40.35s WALL (      28 calls)
     newd         :     45.36s CPU     53.20s WALL (      28 calls)
     PAW_pot      :     21.12s CPU     23.57s WALL (      28 calls)
     mix_rho      :    147.26s CPU    148.43s WALL (      28 calls)

     Called by c_bands:
     init_us_2    :     13.71s CPU     13.76s WALL (     812 calls)
     cegterg      :   2094.94s CPU   2102.85s WALL (     392 calls)

     Called by *egterg:
     cdiaghg      :    157.74s CPU    160.32s WALL (    2535 calls)
     h_psi        :   1171.42s CPU   1178.34s WALL (    2563 calls)
     s_psi        :    109.80s CPU    109.94s WALL (    2577 calls)
     g_psi        :      4.48s CPU      4.50s WALL (    2157 calls)

     Called by h_psi:
     h_psi:calbec :    120.34s CPU    120.58s WALL (    2563 calls)
     vloc_psi     :    917.96s CPU    923.95s WALL (    2563 calls)
     add_vuspsi   :    108.78s CPU    109.10s WALL (    2563 calls)
     vhpsi        :     14.42s CPU     14.46s WALL (    2563 calls)

     General routines
     calbec       :    170.29s CPU    170.62s WALL (    5924 calls)
     fft          :     17.32s CPU     32.87s WALL (     696 calls)
     ffts         :     83.92s CPU     84.56s WALL (   24016 calls)
     fftw         :    981.54s CPU    987.52s WALL (  672972 calls)
     interpolate  :      2.20s CPU      2.51s WALL (      56 calls)
     davcio       :      0.00s CPU      0.00s WALL (      14 calls)
 
     Parallel routines

     Hubbard U routines
     new_ns       :      4.95s CPU      5.12s WALL (      28 calls)
     vhpsi        :     14.42s CPU     14.46s WALL (    2563 calls)
 
     PWSCF        :  47m16.35s CPU  48m27.22s WALL

 
   This run was terminated on:  18:41:47  11Jul2023            

=------------------------------------------------------------------------------=
   JOB DONE.
=------------------------------------------------------------------------------=
