 
             +---------------------------------------------------+
             |                                                   |
             |                   WANNIER90                       |
             |                                                   |
             +---------------------------------------------------+
             |                                                   |
             |        Welcome to the Maximally-Localized         |
             |        Generalized Wannier Functions code         |
             |            http://www.wannier.org                 |
             |                                                   |
             |                                                   |
             |  Wannier90 Developer Group:                       |
             |    Giovanni Pizzi    (EPFL)                       |
             |    Valerio Vitale    (Cambridge)                  |
             |    David Vanderbilt  (Rutgers University)         |
             |    Nicola Marzari    (EPFL)                       |
             |    Ivo Souza         (Universidad del Pais Vasco) |
             |    Arash A. Mostofi  (Imperial College London)    |
             |    Jonathan R. Yates (University of Oxford)       |
             |                                                   |
             |  For the full list of Wannier90 3.x authors,      |
             |  please check the code documentation and the      |
             |  README on the GitHub page of the code            |
             |                                                   |
             |                                                   |
             |  Please cite                                      |
             |                                                   |
             |  [ref] "Wannier90 as a community code:            |
             |        new features and applications",            |
             |        G. Pizzi et al., J. Phys. Cond. Matt. 32,  |
             |        165902 (2020).                             |
             |        http://doi.org/10.1088/1361-648X/ab51ff    |
             |                                                   |
             |  in any publications arising from the use of      |
             |  this code. For the method please cite            |
             |                                                   |
             |  [ref] "Maximally Localized Generalised Wannier   |
             |         Functions for Composite Energy Bands"     |
             |         N. Marzari and D. Vanderbilt              |
             |         Phys. Rev. B 56 12847 (1997)              |
             |                                                   |
             |  [ref] "Maximally Localized Wannier Functions     |
             |         for Entangled Energy Bands"               |
             |         I. Souza, N. Marzari and D. Vanderbilt    |
             |         Phys. Rev. B 65 035109 (2001)             |
             |                                                   |
             |                                                   |
             | Copyright (c) 1996-2020                           |
             |        The Wannier90 Developer Group and          |
             |        individual contributors                    |
             |                                                   |
             |      Release: 3.1.0        5th March    2020      |
             |                                                   |
             | This program is free software; you can            |
             | redistribute it and/or modify it under the terms  |
             | of the GNU General Public License as published by |
             | the Free Software Foundation; either version 2 of |
             | the License, or (at your option) any later version|
             |                                                   |
             | This program is distributed in the hope that it   |
             | will be useful, but WITHOUT ANY WARRANTY; without |
             | even the implied warranty of MERCHANTABILITY or   |
             | FITNESS FOR A PARTICULAR PURPOSE. See the GNU     |
             | General Public License for more details.          |
             |                                                   |
             | You should have received a copy of the GNU General|
             | Public License along with this program; if not,   |
             | write to the Free Software Foundation, Inc.,      |
             | 675 Mass Ave, Cambridge, MA 02139, USA.           |
             |                                                   |
             +---------------------------------------------------+
             |    Execution started on 20Jul2023 at 20:35:54     |
             +---------------------------------------------------+
 
 ******************************************************************************
 * -> Using CODATA 2006 constant values                                       *
 *    (http://physics.nist.gov/cuu/Constants/index.html)                      *
 * -> Using Bohr value from CODATA                                            *
 ******************************************************************************
 

 Running in parallel on  80 CPUs

 
                                    ------
                                    SYSTEM
                                    ------
 
                              Lattice Vectors (Ang)
                    a_1    13.784171   0.000000   0.000000
                    a_2    -6.892085  11.937442   0.000000
                    a_3     0.000000   0.000000  23.631430
 
                   Unit Cell Volume:    3888.49848  (Ang^3)
 
                        Reciprocal-Space Vectors (Ang^-1)
                    b_1     0.455826   0.263171   0.000000
                    b_2     0.000000   0.526343   0.000000
                    b_3     0.000000   0.000000   0.265883
  
 *----------------------------------------------------------------------------*
 |   Site       Fractional Coordinate          Cartesian Coordinate (Ang)     |
 +----------------------------------------------------------------------------+
 | Cr   1   0.33333   0.66667   0.16685   |   -0.00000   7.95829   3.94299    |
 | Cr   2   0.58000   0.66667   0.16685   |    3.40010   7.95829   3.94299    |
 | Cr   3   0.85000   0.66667   0.16685   |    7.12182   7.95829   3.94299    |
 | Cr   4   0.10000   0.66667   0.16685   |   -3.21631   7.95829   3.94299    |
 | Nb   1   0.00000   0.00000   0.07170   |    0.00000   0.00000   1.69430    |
 | Nb   2   0.25189   0.00024   0.07201   |    3.47040   0.00287   1.70173    |
 | Nb   3   0.50228   0.00457   0.07084   |    6.89209   0.05454   1.67414    |
 | Nb   4   0.74835   0.00024   0.07201   |   10.31377   0.00287   1.70173    |
 | Nb   5   0.74850   0.25150   0.06828   |    8.58404   3.00230   1.61367    |
 | Nb   6   0.74850   0.49699   0.06828   |    6.89209   5.93284   1.61367    |
 | Nb   7   0.74835   0.74811   0.07201   |    5.15937   8.93055   1.70173    |
 | Nb   8   0.50032   0.75016   0.07859   |    1.72635   8.95500   1.85709    |
 | Nb   9   0.24984   0.75016   0.07859   |   -1.72635   8.95500   1.85709    |
 | Nb  10  -0.00024   0.74811   0.07201   |   -5.15937   8.93055   1.70173    |
 | Nb  11   0.50301   0.25150   0.06828   |    5.20014   3.00230   1.61367    |
 | Nb  12   0.50228   0.49772   0.07084   |    3.49327   5.94145   1.67414    |
 | Nb  13   0.24984   0.49968   0.07859   |   -0.00000   5.96488   1.85709    |
 | Nb  14   0.25189   0.25165   0.07201   |    1.73769   3.00402   1.70173    |
 | Nb  15  -0.00024   0.25165   0.07201   |   -1.73769   3.00402   1.70173    |
 | Nb  16  -0.00457   0.49772   0.07084   |   -3.49327   5.94145   1.67414    |
 | Se   1   0.16721   0.08361   0.00063   |    1.72866   0.99804   0.01486    |
 | Se   2   0.16690   0.08345   0.14290   |    1.72538   0.99615   3.37693    |
 | Se   3   0.41544   0.08143  -0.00156   |    5.16530   0.97207  -0.03681    |
 | Se   4   0.41911   0.08928   0.14188   |    5.16174   1.06572   3.35289    |
 | Se   5   0.66599   0.08143  -0.00156   |    8.61887   0.97207  -0.03681    |
 | Se   6   0.67017   0.08928   0.14188   |    8.62243   1.06572   3.35289    |
 | Se   7   0.91639   0.08361   0.00063   |   12.05551   0.99804   0.01486    |
 | Se   8   0.91655   0.08345   0.14290   |   12.05879   0.99615   3.37693    |
 | Se   9   0.91857   0.33401  -0.00156   |   10.35968   3.98724  -0.03681    |
 | Se  10   0.91072   0.32983   0.14188   |   10.28036   3.93734   3.35289    |
 | Se  11   0.91857   0.58456  -0.00156   |    8.63289   6.97813  -0.03681    |
 | Se  12   0.91072   0.58089   0.14188   |    8.55002   6.93438   3.35289    |
 | Se  13   0.91639   0.83279   0.00063   |    6.89209   9.94136   0.01486    |
 | Se  14   0.91655   0.83310   0.14290   |    6.89209   9.94514   3.37693    |
 | Se  15   0.66220   0.83110   0.00298   |    3.39989   9.92122   0.07043    |
 | Se  16   0.67172   0.83586   0.14547   |    3.49824   9.97800   3.43758    |
 | Se  17   0.41489   0.82979   0.00560   |    0.00000   9.90552   0.13226    |
 | Se  18   0.42825   0.85651   0.14992   |    0.00000  10.22450   3.54287    |
 | Se  19   0.16890   0.83110   0.00298   |   -3.39989   9.92122   0.07043    |
 | Se  20   0.16414   0.83586   0.14547   |   -3.49824   9.97800   3.43758    |
 | Se  21   0.66667   0.33333  -0.00432   |    6.89209   3.97915  -0.10210    |
 | Se  22   0.66667   0.33333   0.14105   |    6.89209   3.97915   3.33317    |
 | Se  23   0.66599   0.58456  -0.00156   |    5.15128   6.97813  -0.03681    |
 | Se  24   0.67017   0.58089   0.14188   |    5.23415   6.93438   3.35289    |
 | Se  25   0.41489   0.58511   0.00560   |    1.68635   6.98468   0.13226    |
 | Se  26   0.42825   0.57175   0.14992   |    1.96259   6.82519   3.54287    |
 | Se  27   0.41544   0.33401  -0.00156   |    3.42449   3.98724  -0.03681    |
 | Se  28   0.41911   0.32983   0.14188   |    3.50381   3.93734   3.35289    |
 | Se  29   0.16890   0.33780   0.00298   |    0.00000   4.03244   0.07043    |
 | Se  30   0.16414   0.32828   0.14547   |    0.00000   3.91888   3.43758    |
 | Se  31   0.17021   0.58511   0.00560   |   -1.68635   6.98468   0.13226    |
 | Se  32   0.14349   0.57175   0.14992   |   -1.96259   6.82519   3.54287    |
 *----------------------------------------------------------------------------*
                                -----------
                                PROJECTIONS
                                -----------
  
 +----------------------------------------------------------------------------+
 |     Frac. Coord.   l mr  r        z-axis               x-axis          Z/a |
 +----------------------------------------------------------------------------+
 |  0.33  0.67  0.17  2  1  1  0.000  0.000  1.000  1.000  0.000  0.000   1.0 |
 |  0.33  0.67  0.17  2  2  1  0.000  0.000  1.000  1.000  0.000  0.000   1.0 |
 |  0.33  0.67  0.17  2  3  1  0.000  0.000  1.000  1.000  0.000  0.000   1.0 |
 |  0.33  0.67  0.17  2  4  1  0.000  0.000  1.000  1.000  0.000  0.000   1.0 |
 |  0.33  0.67  0.17  2  5  1  0.000  0.000  1.000  1.000  0.000  0.000   1.0 |
 |  0.58  0.67  0.17  2  1  1  0.000  0.000  1.000  1.000  0.000  0.000   1.0 |
 |  0.58  0.67  0.17  2  2  1  0.000  0.000  1.000  1.000  0.000  0.000   1.0 |
 |  0.58  0.67  0.17  2  3  1  0.000  0.000  1.000  1.000  0.000  0.000   1.0 |
 |  0.58  0.67  0.17  2  4  1  0.000  0.000  1.000  1.000  0.000  0.000   1.0 |
 |  0.58  0.67  0.17  2  5  1  0.000  0.000  1.000  1.000  0.000  0.000   1.0 |
 |  0.85  0.67  0.17  2  1  1  0.000  0.000  1.000  1.000  0.000  0.000   1.0 |
 |  0.85  0.67  0.17  2  2  1  0.000  0.000  1.000  1.000  0.000  0.000   1.0 |
 |  0.85  0.67  0.17  2  3  1  0.000  0.000  1.000  1.000  0.000  0.000   1.0 |
 |  0.85  0.67  0.17  2  4  1  0.000  0.000  1.000  1.000  0.000  0.000   1.0 |
 |  0.85  0.67  0.17  2  5  1  0.000  0.000  1.000  1.000  0.000  0.000   1.0 |
 |  0.10  0.67  0.17  2  1  1  0.000  0.000  1.000  1.000  0.000  0.000   1.0 |
 |  0.10  0.67  0.17  2  2  1  0.000  0.000  1.000  1.000  0.000  0.000   1.0 |
 |  0.10  0.67  0.17  2  3  1  0.000  0.000  1.000  1.000  0.000  0.000   1.0 |
 |  0.10  0.67  0.17  2  4  1  0.000  0.000  1.000  1.000  0.000  0.000   1.0 |
 |  0.10  0.67  0.17  2  5  1  0.000  0.000  1.000  1.000  0.000  0.000   1.0 |
 |  0.00  0.00  0.07  2  1  1  0.000  0.000  1.000  1.000  0.000  0.000   1.0 |
 |  0.00  0.00  0.07  2  2  1  0.000  0.000  1.000  1.000  0.000  0.000   1.0 |
 |  0.00  0.00  0.07  2  3  1  0.000  0.000  1.000  1.000  0.000  0.000   1.0 |
 |  0.00  0.00  0.07  2  4  1  0.000  0.000  1.000  1.000  0.000  0.000   1.0 |
 |  0.00  0.00  0.07  2  5  1  0.000  0.000  1.000  1.000  0.000  0.000   1.0 |
 |  0.25  0.00  0.07  2  1  1  0.000  0.000  1.000  1.000  0.000  0.000   1.0 |
 |  0.25  0.00  0.07  2  2  1  0.000  0.000  1.000  1.000  0.000  0.000   1.0 |
 |  0.25  0.00  0.07  2  3  1  0.000  0.000  1.000  1.000  0.000  0.000   1.0 |
 |  0.25  0.00  0.07  2  4  1  0.000  0.000  1.000  1.000  0.000  0.000   1.0 |
 |  0.25  0.00  0.07  2  5  1  0.000  0.000  1.000  1.000  0.000  0.000   1.0 |
 |  0.50  0.00  0.07  2  1  1  0.000  0.000  1.000  1.000  0.000  0.000   1.0 |
 |  0.50  0.00  0.07  2  2  1  0.000  0.000  1.000  1.000  0.000  0.000   1.0 |
 |  0.50  0.00  0.07  2  3  1  0.000  0.000  1.000  1.000  0.000  0.000   1.0 |
 |  0.50  0.00  0.07  2  4  1  0.000  0.000  1.000  1.000  0.000  0.000   1.0 |
 |  0.50  0.00  0.07  2  5  1  0.000  0.000  1.000  1.000  0.000  0.000   1.0 |
 |  0.75  0.00  0.07  2  1  1  0.000  0.000  1.000  1.000  0.000  0.000   1.0 |
 |  0.75  0.00  0.07  2  2  1  0.000  0.000  1.000  1.000  0.000  0.000   1.0 |
 |  0.75  0.00  0.07  2  3  1  0.000  0.000  1.000  1.000  0.000  0.000   1.0 |
 |  0.75  0.00  0.07  2  4  1  0.000  0.000  1.000  1.000  0.000  0.000   1.0 |
 |  0.75  0.00  0.07  2  5  1  0.000  0.000  1.000  1.000  0.000  0.000   1.0 |
 |  0.75  0.25  0.07  2  1  1  0.000  0.000  1.000  1.000  0.000  0.000   1.0 |
 |  0.75  0.25  0.07  2  2  1  0.000  0.000  1.000  1.000  0.000  0.000   1.0 |
 |  0.75  0.25  0.07  2  3  1  0.000  0.000  1.000  1.000  0.000  0.000   1.0 |
 |  0.75  0.25  0.07  2  4  1  0.000  0.000  1.000  1.000  0.000  0.000   1.0 |
 |  0.75  0.25  0.07  2  5  1  0.000  0.000  1.000  1.000  0.000  0.000   1.0 |
 |  0.75  0.50  0.07  2  1  1  0.000  0.000  1.000  1.000  0.000  0.000   1.0 |
 |  0.75  0.50  0.07  2  2  1  0.000  0.000  1.000  1.000  0.000  0.000   1.0 |
 |  0.75  0.50  0.07  2  3  1  0.000  0.000  1.000  1.000  0.000  0.000   1.0 |
 |  0.75  0.50  0.07  2  4  1  0.000  0.000  1.000  1.000  0.000  0.000   1.0 |
 |  0.75  0.50  0.07  2  5  1  0.000  0.000  1.000  1.000  0.000  0.000   1.0 |
 |  0.75  0.75  0.07  2  1  1  0.000  0.000  1.000  1.000  0.000  0.000   1.0 |
 |  0.75  0.75  0.07  2  2  1  0.000  0.000  1.000  1.000  0.000  0.000   1.0 |
 |  0.75  0.75  0.07  2  3  1  0.000  0.000  1.000  1.000  0.000  0.000   1.0 |
 |  0.75  0.75  0.07  2  4  1  0.000  0.000  1.000  1.000  0.000  0.000   1.0 |
 |  0.75  0.75  0.07  2  5  1  0.000  0.000  1.000  1.000  0.000  0.000   1.0 |
 |  0.50  0.75  0.08  2  1  1  0.000  0.000  1.000  1.000  0.000  0.000   1.0 |
 |  0.50  0.75  0.08  2  2  1  0.000  0.000  1.000  1.000  0.000  0.000   1.0 |
 |  0.50  0.75  0.08  2  3  1  0.000  0.000  1.000  1.000  0.000  0.000   1.0 |
 |  0.50  0.75  0.08  2  4  1  0.000  0.000  1.000  1.000  0.000  0.000   1.0 |
 |  0.50  0.75  0.08  2  5  1  0.000  0.000  1.000  1.000  0.000  0.000   1.0 |
 |  0.25  0.75  0.08  2  1  1  0.000  0.000  1.000  1.000  0.000  0.000   1.0 |
 |  0.25  0.75  0.08  2  2  1  0.000  0.000  1.000  1.000  0.000  0.000   1.0 |
 |  0.25  0.75  0.08  2  3  1  0.000  0.000  1.000  1.000  0.000  0.000   1.0 |
 |  0.25  0.75  0.08  2  4  1  0.000  0.000  1.000  1.000  0.000  0.000   1.0 |
 |  0.25  0.75  0.08  2  5  1  0.000  0.000  1.000  1.000  0.000  0.000   1.0 |
 | -0.00  0.75  0.07  2  1  1  0.000  0.000  1.000  1.000  0.000  0.000   1.0 |
 | -0.00  0.75  0.07  2  2  1  0.000  0.000  1.000  1.000  0.000  0.000   1.0 |
 | -0.00  0.75  0.07  2  3  1  0.000  0.000  1.000  1.000  0.000  0.000   1.0 |
 | -0.00  0.75  0.07  2  4  1  0.000  0.000  1.000  1.000  0.000  0.000   1.0 |
 | -0.00  0.75  0.07  2  5  1  0.000  0.000  1.000  1.000  0.000  0.000   1.0 |
 |  0.50  0.25  0.07  2  1  1  0.000  0.000  1.000  1.000  0.000  0.000   1.0 |
 |  0.50  0.25  0.07  2  2  1  0.000  0.000  1.000  1.000  0.000  0.000   1.0 |
 |  0.50  0.25  0.07  2  3  1  0.000  0.000  1.000  1.000  0.000  0.000   1.0 |
 |  0.50  0.25  0.07  2  4  1  0.000  0.000  1.000  1.000  0.000  0.000   1.0 |
 |  0.50  0.25  0.07  2  5  1  0.000  0.000  1.000  1.000  0.000  0.000   1.0 |
 |  0.50  0.50  0.07  2  1  1  0.000  0.000  1.000  1.000  0.000  0.000   1.0 |
 |  0.50  0.50  0.07  2  2  1  0.000  0.000  1.000  1.000  0.000  0.000   1.0 |
 |  0.50  0.50  0.07  2  3  1  0.000  0.000  1.000  1.000  0.000  0.000   1.0 |
 |  0.50  0.50  0.07  2  4  1  0.000  0.000  1.000  1.000  0.000  0.000   1.0 |
 |  0.50  0.50  0.07  2  5  1  0.000  0.000  1.000  1.000  0.000  0.000   1.0 |
 |  0.25  0.50  0.08  2  1  1  0.000  0.000  1.000  1.000  0.000  0.000   1.0 |
 |  0.25  0.50  0.08  2  2  1  0.000  0.000  1.000  1.000  0.000  0.000   1.0 |
 |  0.25  0.50  0.08  2  3  1  0.000  0.000  1.000  1.000  0.000  0.000   1.0 |
 |  0.25  0.50  0.08  2  4  1  0.000  0.000  1.000  1.000  0.000  0.000   1.0 |
 |  0.25  0.50  0.08  2  5  1  0.000  0.000  1.000  1.000  0.000  0.000   1.0 |
 |  0.25  0.25  0.07  2  1  1  0.000  0.000  1.000  1.000  0.000  0.000   1.0 |
 |  0.25  0.25  0.07  2  2  1  0.000  0.000  1.000  1.000  0.000  0.000   1.0 |
 |  0.25  0.25  0.07  2  3  1  0.000  0.000  1.000  1.000  0.000  0.000   1.0 |
 |  0.25  0.25  0.07  2  4  1  0.000  0.000  1.000  1.000  0.000  0.000   1.0 |
 |  0.25  0.25  0.07  2  5  1  0.000  0.000  1.000  1.000  0.000  0.000   1.0 |
 | -0.00  0.25  0.07  2  1  1  0.000  0.000  1.000  1.000  0.000  0.000   1.0 |
 | -0.00  0.25  0.07  2  2  1  0.000  0.000  1.000  1.000  0.000  0.000   1.0 |
 | -0.00  0.25  0.07  2  3  1  0.000  0.000  1.000  1.000  0.000  0.000   1.0 |
 | -0.00  0.25  0.07  2  4  1  0.000  0.000  1.000  1.000  0.000  0.000   1.0 |
 | -0.00  0.25  0.07  2  5  1  0.000  0.000  1.000  1.000  0.000  0.000   1.0 |
 | -0.00  0.50  0.07  2  1  1  0.000  0.000  1.000  1.000  0.000  0.000   1.0 |
 | -0.00  0.50  0.07  2  2  1  0.000  0.000  1.000  1.000  0.000  0.000   1.0 |
 | -0.00  0.50  0.07  2  3  1  0.000  0.000  1.000  1.000  0.000  0.000   1.0 |
 | -0.00  0.50  0.07  2  4  1  0.000  0.000  1.000  1.000  0.000  0.000   1.0 |
 | -0.00  0.50  0.07  2  5  1  0.000  0.000  1.000  1.000  0.000  0.000   1.0 |
 |  0.17  0.08  0.00  1  1  1  0.000  0.000  1.000  1.000  0.000  0.000   1.0 |
 |  0.17  0.08  0.00  1  2  1  0.000  0.000  1.000  1.000  0.000  0.000   1.0 |
 |  0.17  0.08  0.00  1  3  1  0.000  0.000  1.000  1.000  0.000  0.000   1.0 |
 |  0.17  0.08  0.14  1  1  1  0.000  0.000  1.000  1.000  0.000  0.000   1.0 |
 |  0.17  0.08  0.14  1  2  1  0.000  0.000  1.000  1.000  0.000  0.000   1.0 |
 |  0.17  0.08  0.14  1  3  1  0.000  0.000  1.000  1.000  0.000  0.000   1.0 |
 |  0.42  0.08 -0.00  1  1  1  0.000  0.000  1.000  1.000  0.000  0.000   1.0 |
 |  0.42  0.08 -0.00  1  2  1  0.000  0.000  1.000  1.000  0.000  0.000   1.0 |
 |  0.42  0.08 -0.00  1  3  1  0.000  0.000  1.000  1.000  0.000  0.000   1.0 |
 |  0.42  0.09  0.14  1  1  1  0.000  0.000  1.000  1.000  0.000  0.000   1.0 |
 |  0.42  0.09  0.14  1  2  1  0.000  0.000  1.000  1.000  0.000  0.000   1.0 |
 |  0.42  0.09  0.14  1  3  1  0.000  0.000  1.000  1.000  0.000  0.000   1.0 |
 |  0.67  0.08 -0.00  1  1  1  0.000  0.000  1.000  1.000  0.000  0.000   1.0 |
 |  0.67  0.08 -0.00  1  2  1  0.000  0.000  1.000  1.000  0.000  0.000   1.0 |
 |  0.67  0.08 -0.00  1  3  1  0.000  0.000  1.000  1.000  0.000  0.000   1.0 |
 |  0.67  0.09  0.14  1  1  1  0.000  0.000  1.000  1.000  0.000  0.000   1.0 |
 |  0.67  0.09  0.14  1  2  1  0.000  0.000  1.000  1.000  0.000  0.000   1.0 |
 |  0.67  0.09  0.14  1  3  1  0.000  0.000  1.000  1.000  0.000  0.000   1.0 |
 |  0.92  0.08  0.00  1  1  1  0.000  0.000  1.000  1.000  0.000  0.000   1.0 |
 |  0.92  0.08  0.00  1  2  1  0.000  0.000  1.000  1.000  0.000  0.000   1.0 |
 |  0.92  0.08  0.00  1  3  1  0.000  0.000  1.000  1.000  0.000  0.000   1.0 |
 |  0.92  0.08  0.14  1  1  1  0.000  0.000  1.000  1.000  0.000  0.000   1.0 |
 |  0.92  0.08  0.14  1  2  1  0.000  0.000  1.000  1.000  0.000  0.000   1.0 |
 |  0.92  0.08  0.14  1  3  1  0.000  0.000  1.000  1.000  0.000  0.000   1.0 |
 |  0.92  0.33 -0.00  1  1  1  0.000  0.000  1.000  1.000  0.000  0.000   1.0 |
 |  0.92  0.33 -0.00  1  2  1  0.000  0.000  1.000  1.000  0.000  0.000   1.0 |
 |  0.92  0.33 -0.00  1  3  1  0.000  0.000  1.000  1.000  0.000  0.000   1.0 |
 |  0.91  0.33  0.14  1  1  1  0.000  0.000  1.000  1.000  0.000  0.000   1.0 |
 |  0.91  0.33  0.14  1  2  1  0.000  0.000  1.000  1.000  0.000  0.000   1.0 |
 |  0.91  0.33  0.14  1  3  1  0.000  0.000  1.000  1.000  0.000  0.000   1.0 |
 |  0.92  0.58 -0.00  1  1  1  0.000  0.000  1.000  1.000  0.000  0.000   1.0 |
 |  0.92  0.58 -0.00  1  2  1  0.000  0.000  1.000  1.000  0.000  0.000   1.0 |
 |  0.92  0.58 -0.00  1  3  1  0.000  0.000  1.000  1.000  0.000  0.000   1.0 |
 |  0.91  0.58  0.14  1  1  1  0.000  0.000  1.000  1.000  0.000  0.000   1.0 |
 |  0.91  0.58  0.14  1  2  1  0.000  0.000  1.000  1.000  0.000  0.000   1.0 |
 |  0.91  0.58  0.14  1  3  1  0.000  0.000  1.000  1.000  0.000  0.000   1.0 |
 |  0.92  0.83  0.00  1  1  1  0.000  0.000  1.000  1.000  0.000  0.000   1.0 |
 |  0.92  0.83  0.00  1  2  1  0.000  0.000  1.000  1.000  0.000  0.000   1.0 |
 |  0.92  0.83  0.00  1  3  1  0.000  0.000  1.000  1.000  0.000  0.000   1.0 |
 |  0.92  0.83  0.14  1  1  1  0.000  0.000  1.000  1.000  0.000  0.000   1.0 |
 |  0.92  0.83  0.14  1  2  1  0.000  0.000  1.000  1.000  0.000  0.000   1.0 |
 |  0.92  0.83  0.14  1  3  1  0.000  0.000  1.000  1.000  0.000  0.000   1.0 |
 |  0.66  0.83  0.00  1  1  1  0.000  0.000  1.000  1.000  0.000  0.000   1.0 |
 |  0.66  0.83  0.00  1  2  1  0.000  0.000  1.000  1.000  0.000  0.000   1.0 |
 |  0.66  0.83  0.00  1  3  1  0.000  0.000  1.000  1.000  0.000  0.000   1.0 |
 |  0.67  0.84  0.15  1  1  1  0.000  0.000  1.000  1.000  0.000  0.000   1.0 |
 |  0.67  0.84  0.15  1  2  1  0.000  0.000  1.000  1.000  0.000  0.000   1.0 |
 |  0.67  0.84  0.15  1  3  1  0.000  0.000  1.000  1.000  0.000  0.000   1.0 |
 |  0.41  0.83  0.01  1  1  1  0.000  0.000  1.000  1.000  0.000  0.000   1.0 |
 |  0.41  0.83  0.01  1  2  1  0.000  0.000  1.000  1.000  0.000  0.000   1.0 |
 |  0.41  0.83  0.01  1  3  1  0.000  0.000  1.000  1.000  0.000  0.000   1.0 |
 |  0.43  0.86  0.15  1  1  1  0.000  0.000  1.000  1.000  0.000  0.000   1.0 |
 |  0.43  0.86  0.15  1  2  1  0.000  0.000  1.000  1.000  0.000  0.000   1.0 |
 |  0.43  0.86  0.15  1  3  1  0.000  0.000  1.000  1.000  0.000  0.000   1.0 |
 |  0.17  0.83  0.00  1  1  1  0.000  0.000  1.000  1.000  0.000  0.000   1.0 |
 |  0.17  0.83  0.00  1  2  1  0.000  0.000  1.000  1.000  0.000  0.000   1.0 |
 |  0.17  0.83  0.00  1  3  1  0.000  0.000  1.000  1.000  0.000  0.000   1.0 |
 |  0.16  0.84  0.15  1  1  1  0.000  0.000  1.000  1.000  0.000  0.000   1.0 |
 |  0.16  0.84  0.15  1  2  1  0.000  0.000  1.000  1.000  0.000  0.000   1.0 |
 |  0.16  0.84  0.15  1  3  1  0.000  0.000  1.000  1.000  0.000  0.000   1.0 |
 |  0.67  0.33 -0.00  1  1  1  0.000  0.000  1.000  1.000  0.000  0.000   1.0 |
 |  0.67  0.33 -0.00  1  2  1  0.000  0.000  1.000  1.000  0.000  0.000   1.0 |
 |  0.67  0.33 -0.00  1  3  1  0.000  0.000  1.000  1.000  0.000  0.000   1.0 |
 |  0.67  0.33  0.14  1  1  1  0.000  0.000  1.000  1.000  0.000  0.000   1.0 |
 |  0.67  0.33  0.14  1  2  1  0.000  0.000  1.000  1.000  0.000  0.000   1.0 |
 |  0.67  0.33  0.14  1  3  1  0.000  0.000  1.000  1.000  0.000  0.000   1.0 |
 |  0.67  0.58 -0.00  1  1  1  0.000  0.000  1.000  1.000  0.000  0.000   1.0 |
 |  0.67  0.58 -0.00  1  2  1  0.000  0.000  1.000  1.000  0.000  0.000   1.0 |
 |  0.67  0.58 -0.00  1  3  1  0.000  0.000  1.000  1.000  0.000  0.000   1.0 |
 |  0.67  0.58  0.14  1  1  1  0.000  0.000  1.000  1.000  0.000  0.000   1.0 |
 |  0.67  0.58  0.14  1  2  1  0.000  0.000  1.000  1.000  0.000  0.000   1.0 |
 |  0.67  0.58  0.14  1  3  1  0.000  0.000  1.000  1.000  0.000  0.000   1.0 |
 |  0.41  0.59  0.01  1  1  1  0.000  0.000  1.000  1.000  0.000  0.000   1.0 |
 |  0.41  0.59  0.01  1  2  1  0.000  0.000  1.000  1.000  0.000  0.000   1.0 |
 |  0.41  0.59  0.01  1  3  1  0.000  0.000  1.000  1.000  0.000  0.000   1.0 |
 |  0.43  0.57  0.15  1  1  1  0.000  0.000  1.000  1.000  0.000  0.000   1.0 |
 |  0.43  0.57  0.15  1  2  1  0.000  0.000  1.000  1.000  0.000  0.000   1.0 |
 |  0.43  0.57  0.15  1  3  1  0.000  0.000  1.000  1.000  0.000  0.000   1.0 |
 |  0.42  0.33 -0.00  1  1  1  0.000  0.000  1.000  1.000  0.000  0.000   1.0 |
 |  0.42  0.33 -0.00  1  2  1  0.000  0.000  1.000  1.000  0.000  0.000   1.0 |
 |  0.42  0.33 -0.00  1  3  1  0.000  0.000  1.000  1.000  0.000  0.000   1.0 |
 |  0.42  0.33  0.14  1  1  1  0.000  0.000  1.000  1.000  0.000  0.000   1.0 |
 |  0.42  0.33  0.14  1  2  1  0.000  0.000  1.000  1.000  0.000  0.000   1.0 |
 |  0.42  0.33  0.14  1  3  1  0.000  0.000  1.000  1.000  0.000  0.000   1.0 |
 |  0.17  0.34  0.00  1  1  1  0.000  0.000  1.000  1.000  0.000  0.000   1.0 |
 |  0.17  0.34  0.00  1  2  1  0.000  0.000  1.000  1.000  0.000  0.000   1.0 |
 |  0.17  0.34  0.00  1  3  1  0.000  0.000  1.000  1.000  0.000  0.000   1.0 |
 |  0.16  0.33  0.15  1  1  1  0.000  0.000  1.000  1.000  0.000  0.000   1.0 |
 |  0.16  0.33  0.15  1  2  1  0.000  0.000  1.000  1.000  0.000  0.000   1.0 |
 |  0.16  0.33  0.15  1  3  1  0.000  0.000  1.000  1.000  0.000  0.000   1.0 |
 |  0.17  0.59  0.01  1  1  1  0.000  0.000  1.000  1.000  0.000  0.000   1.0 |
 |  0.17  0.59  0.01  1  2  1  0.000  0.000  1.000  1.000  0.000  0.000   1.0 |
 |  0.17  0.59  0.01  1  3  1  0.000  0.000  1.000  1.000  0.000  0.000   1.0 |
 |  0.14  0.57  0.15  1  1  1  0.000  0.000  1.000  1.000  0.000  0.000   1.0 |
 |  0.14  0.57  0.15  1  2  1  0.000  0.000  1.000  1.000  0.000  0.000   1.0 |
 |  0.14  0.57  0.15  1  3  1  0.000  0.000  1.000  1.000  0.000  0.000   1.0 |
 +----------------------------------------------------------------------------+
  
                                ------------
                                K-POINT GRID
                                ------------
  
             Grid size =  1 x  1 x  1      Total points =    1
  
 *----------------------------------------------------------------------------*
 | k-point      Fractional Coordinate        Cartesian Coordinate (Ang^-1)    |
 +----------------------------------------------------------------------------+
 |     1    0.00000   0.00000   0.00000   |    0.00000   0.00000   0.00000    |
 *----------------------------------------------------------------------------*
  
  
 *---------------------------------- MAIN ------------------------------------*
 |  Number of Wannier Functions               :               196             |
 |  Number of Objective Wannier Functions     :               196             |
 |  Number of input Bloch states              :               450             |
 |  Output verbosity (1=low, 5=high)          :                 3             |
 |  Timing Level (1=low, 5=high)              :                 1             |
 |  Optimisation (0=memory, 3=speed)          :                 3             |
 |  Length Unit                               :               Ang             |
 |  Post-processing setup (write *.nnkp)      :                 F             |
 |  Using Gamma-only branch of algorithms     :                 F             |
 |  CP code post-processing                   :                 F             |
 |  Wavefunction (UNK) file-type              :       unformatted             |
 |  Wavefunction spin channel                 :                up             |
 *----------------------------------------------------------------------------*
 *------------------------------- WANNIERISE ---------------------------------*
 |  Total number of iterations                :               500             |
 |  Number of CG steps before reset           :                 5             |
 |  Trial step length for line search         :             2.000             |
 |  Convergence tolerence                     :         0.100E-09             |
 |  Convergence window                        :                -1             |
 |  Iterations between writing output         :                50             |
 |  Iterations between backing up to disk     :               100             |
 |  Write r^2_nm to file                      :                 F             |
 |  Write xyz WF centres to file              :                 T             |
 |  Write on-site energies <0n|H|0n> to file  :                 F             |
 |  Use guiding centre to control phases      :                 T             |
 |  Use phases for initial projections        :                 F             |
 |  Iterations before starting guiding centres:                 0             |
 |  Iterations between using guiding centres  :                 1             |
 |  Perform selective localization            :                 F             |
 |  Use constrains in selective localization  :                 F             |
 |  Value of the Lagrange multiplier          :         0.100E+01             |
 *----------------------------------------------------------------------------*
 *------------------------------- DISENTANGLE --------------------------------*
 |  Using band disentanglement                :                 T             |
 |  Total number of iterations                :              4000             |
 |  Mixing ratio                              :             0.500             |
 |  Convergence tolerence                     :         1.000E-10             |
 |  Convergence window                        :                 3             |
 *----------------------------------------------------------------------------*
 *-------------------------------- PLOTTING ----------------------------------*
 |  Plotting Wannier functions                :                 F             |
 |   Size of supercell for plotting           :     2x    2x    2             |
 |   Plotting mode (molecule or crystal)      :           crystal             |
 |   Plotting format                          :          xcrysden             |
 |   Plot radius                              :             3.500             |
 |   Plot scale                               :             1.000             |
 *----------------------------------------------------------------------------*
 |  Plotting Fermi surface                    :                 F             |
 |   Number of plotting points (along b_1)    :                50             |
 |   Plotting format                          :          xcrysden             |
 *----------------------------------------------------------------------------*
 |  Plotting interpolated bandstructure       :                 T             |
 |   Number of K-path sections                :                 4             |
 |   Divisions along first K-path section     :               100             |
 |   Output format                            :           gnuplot             |
 |   Output mode                              :               s-k             |
 *----------------------------------------------------------------------------*
 |   K-space path sections:                                                   |
 |    From: Γ      0.000  0.000  0.000     To: X       0.500  0.000  0.000   |
 |    From: X       0.500  0.000  0.000     To: S       0.500  0.500  0.000   |
 |    From: S       0.500  0.500  0.000     To: Y       0.000  0.500  0.000   |
 |    From: Y       0.000  0.500  0.000     To: Γ      0.000  0.000  0.000   |
 *----------------------------------------------------------------------------*
 |  Plotting Hamiltonian in WF basis          :                 T             |
 *----------------------------------------------------------------------------*
 |  Writing data for Van der Waals post-proc  :                 F             |
 *----------------------------------------------------------------------------*
 *------------------------------- TRANSPORT ----------------------------------*
 |  Transport mode                            :              bulk             |
 |   Hamiltonian from external files          :                 F             |
 |   System extended in                       :              none             |
 |   Centre of the unit cell to which WF are translated (fract. coords):      |
 |                                       0.000000,    0.000000,    0.000000   |
 |  Fermi energy (eV)                         :             0.000             |
 *----------------------------------------------------------------------------*
 Time to read parameters        0.016 (sec)

 *---------------------------------- K-MESH ----------------------------------*
 +----------------------------------------------------------------------------+
 |                    Distance to Nearest-Neighbour Shells                    |
 |                    ------------------------------------                    |
 |          Shell             Distance (Ang^-1)          Multiplicity         |
 |          -----             -----------------          ------------         |
 |             1                   0.265883                      2            |
 |             2                   0.526343                      6            |
 |             3                   0.531765                      2            |
 |             4                   0.589686                     12            |
 |             5                   0.748205                     12            |
 |             6                   0.797648                      2            |
 |             7                   0.911652                      6            |
 |             8                   0.949633                     12            |
 |             9                   0.955656                     12            |
 |            10                   1.052685                      6            |
 |            11                   1.055407                     12            |
 |            12                   1.063530                      2            |
 |            13                   1.085744                     12            |
 |            14                   1.179373                     12            |
 |            15                   1.186648                     12            |
 |            16                   1.211343                     12            |
 |            17                   1.320753                     12            |
 |            18                   1.329413                      2            |
 |            19                   1.392572                     12            |
 |            20                   1.400788                     12            |
 |            21                   1.417727                     24            |
 |            22                   1.429816                     12            |
 |            23                   1.490648                     24            |
 |            24                   1.496410                     12            |
 |            25                   1.579028                      6            |
 |            26                   1.601257                     12            |
 |            27                   1.604836                     24            |
 |            28                   1.611970                     12            |
 |            29                   1.666164                     12            |
 |            30                   1.695726                     12            |
 |            31                   1.752242                     24            |
 |            32                   1.769059                     12            |
 |            33                   1.823305                      6            |
 |            34                   1.842589                     12            |
 |            35                   1.897756                     12            |
 |            36                   1.899267                     12            |
 +----------------------------------------------------------------------------+
 | The b-vectors are chosen automatically                                     |
 | Shell:  1 Multiplicity:  2                                                 |
 | b-vector 1 :        0.000000    0.000000    0.265883      (Ang^-1)         |
 | b-vector 2 :        0.000000    0.000000   -0.265883      (Ang^-1)         |
 | Shell:  1 w_b    7.0727819      (Ang^2)                                    |
 | B1 condition is not satisfied: Adding another shell                        |
 | Shell:  2 Multiplicity:  6                                                 |
 | b-vector 1 :        0.455826    0.263171    0.000000      (Ang^-1)         |
 | b-vector 2 :        0.455826   -0.263171    0.000000      (Ang^-1)         |
 | b-vector 3 :        0.000000    0.526343    0.000000      (Ang^-1)         |
 | b-vector 4 :        0.000000   -0.526343    0.000000      (Ang^-1)         |
 | b-vector 5 :       -0.455826    0.263171    0.000000      (Ang^-1)         |
 | b-vector 6 :       -0.455826   -0.263171    0.000000      (Ang^-1)         |
 | Shell:  1 w_b    7.0727819      (Ang^2)                                    |
 | Shell:  2 w_b    1.2032104      (Ang^2)                                    |
 | The following shells are used:   1,  2                                     |
 +----------------------------------------------------------------------------+
 |                        Shell   # Nearest-Neighbours                        |
 |                        -----   --------------------                        |
 |                          1               2                                 |
 |                          2               6                                 |
 +----------------------------------------------------------------------------+
 | Completeness relation is fully satisfied [Eq. (B1), PRB 56, 12847 (1997)]  |
 +----------------------------------------------------------------------------+
 |                  b_k Vectors (Ang^-1) and Weights (Ang^2)                  |
 |                  ----------------------------------------                  |
 |            No.         b_k(x)      b_k(y)      b_k(z)        w_b           |
 |            ---        --------------------------------     --------        |
 |             1         0.000000    0.000000    0.265883     7.072782        |
 |             2         0.000000    0.000000   -0.265883     7.072782        |
 |             3         0.455826    0.263171    0.000000     1.203210        |
 |             4         0.455826   -0.263171    0.000000     1.203210        |
 |             5         0.000000    0.526343    0.000000     1.203210        |
 |             6         0.000000   -0.526343    0.000000     1.203210        |
 |             7        -0.455826    0.263171    0.000000     1.203210        |
 |             8        -0.455826   -0.263171    0.000000     1.203210        |
 +----------------------------------------------------------------------------+
 |                           b_k Directions (Ang^-1)                          |
 |                           -----------------------                          |
 |            No.           x           y           z                         |
 |            ---        --------------------------------                     |
 |             1         0.000000    0.000000    0.265883                     |
 |             2         0.455826    0.263171    0.000000                     |
 |             3         0.455826   -0.263171    0.000000                     |
 |             4         0.000000    0.526343    0.000000                     |
 +----------------------------------------------------------------------------+
  
 Time to get kmesh              0.009 (sec)
 *============================================================================*
 |                              MEMORY ESTIMATE                               |
 |         Maximum RAM allocated during each phase of the calculation         |
 *============================================================================*
 |                        Disentanglement           42.20 Mb                  |
 |                            Wannierise:           16.18 Mb                  |
 |                                                                            |
 |   N.B. by setting optimisation=0 memory usage will be reduced to:          |
 |                        Disentanglement           42.20 Mb                  |
 |                            Wannierise:           11.49 Mb                  |
 |   However, this will result in more i/o and slow down the calculation      |
 |                          plot_wannier:           16.18 Mb                  |
 *----------------------------------------------------------------------------*
  
 Starting a new Wannier90 calculation ...


 Reading overlaps from infcr.down.mmn    :  Created on 20Jul2023 at 20:32:47

 Reading projections from infcr.down.amn :  Created on 20Jul2023 at 20:31:33

 Time to read overlaps          4.118 (sec)

 *------------------------------- DISENTANGLE --------------------------------*
 +----------------------------------------------------------------------------+
 |                              Energy  Windows                               |
 |                              ---------------                               |
 |                   Outer:  -30.00000  to   30.00000  (eV)                   |
 |                   Inner:   -6.00000  to    2.50000  (eV)                   |
 +----------------------------------------------------------------------------+
 |                        K-points with Frozen States                         |
 |                        ---------------------------                         |
 |     1                                                                      |
 +----------------------------------------------------------------------------+
   Number of target bands to extract:  196
 +----------------------------------------------------------------------------+
 |                                  Windows                                   |
 |                                  -------                                   |
 |               K-point      Ndimwin     Ndimfroz    Nfirstwin               |
 |               ----------------------------------------------               |
 |                   1          370          157          81                  |
 +----------------------------------------------------------------------------+

                   Unitarised projection of Wannier functions                  
                   ------------------------------------------                  
   A_mn = <psi_m|g_n> --> S = A.A^+ --> U = S^-1/2.A
   In dis_project... done
   Using an inner window (linner = T)
   In dis_proj_froz...
 K-point   1 ndimwin: 370 we want the 39 leading eigenvector(s) of QPQ
  lambda(  1)= -0.000000000000
  lambda(  2)= -0.000000000000
  lambda(  3)= -0.000000000000
  lambda(  4)= -0.000000000000
  lambda(  5)= -0.000000000000
  lambda(  6)= -0.000000000000
  lambda(  7)= -0.000000000000
  lambda(  8)= -0.000000000000
  lambda(  9)= -0.000000000000
  lambda( 10)= -0.000000000000
  lambda( 11)= -0.000000000000
  lambda( 12)= -0.000000000000
  lambda( 13)= -0.000000000000
  lambda( 14)= -0.000000000000
  lambda( 15)= -0.000000000000
  lambda( 16)= -0.000000000000
  lambda( 17)= -0.000000000000
  lambda( 18)= -0.000000000000
  lambda( 19)= -0.000000000000
  lambda( 20)= -0.000000000000
  lambda( 21)= -0.000000000000
  lambda( 22)= -0.000000000000
  lambda( 23)= -0.000000000000
  lambda( 24)= -0.000000000000
  lambda( 25)= -0.000000000000
  lambda( 26)= -0.000000000000
  lambda( 27)= -0.000000000000
  lambda( 28)= -0.000000000000
  lambda( 29)= -0.000000000000
  lambda( 30)= -0.000000000000
  lambda( 31)= -0.000000000000
  lambda( 32)= -0.000000000000
  lambda( 33)= -0.000000000000
  lambda( 34)= -0.000000000000
  lambda( 35)= -0.000000000000
  lambda( 36)= -0.000000000000
  lambda( 37)= -0.000000000000
  lambda( 38)= -0.000000000000
  lambda( 39)= -0.000000000000
  lambda( 40)= -0.000000000000
  lambda( 41)= -0.000000000000
  lambda( 42)= -0.000000000000
  lambda( 43)= -0.000000000000
  lambda( 44)= -0.000000000000
  lambda( 45)= -0.000000000000
  lambda( 46)= -0.000000000000
  lambda( 47)= -0.000000000000
  lambda( 48)= -0.000000000000
  lambda( 49)= -0.000000000000
  lambda( 50)= -0.000000000000
  lambda( 51)= -0.000000000000
  lambda( 52)= -0.000000000000
  lambda( 53)= -0.000000000000
  lambda( 54)= -0.000000000000
  lambda( 55)= -0.000000000000
  lambda( 56)= -0.000000000000
  lambda( 57)= -0.000000000000
  lambda( 58)= -0.000000000000
  lambda( 59)= -0.000000000000
  lambda( 60)= -0.000000000000
  lambda( 61)= -0.000000000000
  lambda( 62)= -0.000000000000
  lambda( 63)= -0.000000000000
  lambda( 64)= -0.000000000000
  lambda( 65)= -0.000000000000
  lambda( 66)= -0.000000000000
  lambda( 67)= -0.000000000000
  lambda( 68)= -0.000000000000
  lambda( 69)= -0.000000000000
  lambda( 70)= -0.000000000000
  lambda( 71)= -0.000000000000
  lambda( 72)= -0.000000000000
  lambda( 73)= -0.000000000000
  lambda( 74)= -0.000000000000
  lambda( 75)= -0.000000000000
  lambda( 76)= -0.000000000000
  lambda( 77)= -0.000000000000
  lambda( 78)= -0.000000000000
  lambda( 79)= -0.000000000000
  lambda( 80)= -0.000000000000
  lambda( 81)= -0.000000000000
  lambda( 82)= -0.000000000000
  lambda( 83)= -0.000000000000
  lambda( 84)= -0.000000000000
  lambda( 85)= -0.000000000000
  lambda( 86)= -0.000000000000
  lambda( 87)=  0.000000000000
  lambda( 88)=  0.000000000000
  lambda( 89)=  0.000000000000
  lambda( 90)=  0.000000000000
  lambda( 91)=  0.000000000000
  lambda( 92)=  0.000000000000
  lambda( 93)=  0.000000000000
  lambda( 94)=  0.000000000000
  lambda( 95)=  0.000000000000
  lambda( 96)=  0.000000000000
  lambda( 97)=  0.000000000000
  lambda( 98)=  0.000000000000
  lambda( 99)=  0.000000000000
  lambda(100)=  0.000000000000
  lambda(101)=  0.000000000000
  lambda(102)=  0.000000000000
  lambda(103)=  0.000000000000
  lambda(104)=  0.000000000000
  lambda(105)=  0.000000000000
  lambda(106)=  0.000000000000
  lambda(107)=  0.000000000000
  lambda(108)=  0.000000000000
  lambda(109)=  0.000000000000
  lambda(110)=  0.000000000000
  lambda(111)=  0.000000000000
  lambda(112)=  0.000000000000
  lambda(113)=  0.000000000000
  lambda(114)=  0.000000000000
  lambda(115)=  0.000000000000
  lambda(116)=  0.000000000000
  lambda(117)=  0.000000000000
  lambda(118)=  0.000000000000
  lambda(119)=  0.000000000000
  lambda(120)=  0.000000000000
  lambda(121)=  0.000000000000
  lambda(122)=  0.000000000000
  lambda(123)=  0.000000000000
  lambda(124)=  0.000000000000
  lambda(125)=  0.000000000000
  lambda(126)=  0.000000000000
  lambda(127)=  0.000000000000
  lambda(128)=  0.000000000000
  lambda(129)=  0.000000000000
  lambda(130)=  0.000000000000
  lambda(131)=  0.000000000000
  lambda(132)=  0.000000000000
  lambda(133)=  0.000000000000
  lambda(134)=  0.000000000000
  lambda(135)=  0.000000000000
  lambda(136)=  0.000000000000
  lambda(137)=  0.000000000000
  lambda(138)=  0.000000000000
  lambda(139)=  0.000000000000
  lambda(140)=  0.000000000000
  lambda(141)=  0.000000000000
  lambda(142)=  0.000000000000
  lambda(143)=  0.000000000000
  lambda(144)=  0.000000000000
  lambda(145)=  0.000000000000
  lambda(146)=  0.000000000000
  lambda(147)=  0.000000000000
  lambda(148)=  0.000000000000
  lambda(149)=  0.000000000000
  lambda(150)=  0.000000000000
  lambda(151)=  0.000000000000
  lambda(152)=  0.000000000000
  lambda(153)=  0.000000000000
  lambda(154)=  0.000000000000
  lambda(155)=  0.000000000000
  lambda(156)=  0.000000000000
  lambda(157)=  0.000000000000
  lambda(158)=  0.000000000000
  lambda(159)=  0.000000000000
  lambda(160)=  0.000000000000
  lambda(161)=  0.000000000000
  lambda(162)=  0.000000000000
  lambda(163)=  0.000000000000
  lambda(164)=  0.000000000000
  lambda(165)=  0.000000000000
  lambda(166)=  0.000000000000
  lambda(167)=  0.000000000000
  lambda(168)=  0.000000000000
  lambda(169)=  0.000000000000
  lambda(170)=  0.000000000000
  lambda(171)=  0.000000000000
  lambda(172)=  0.000000000000
  lambda(173)=  0.000000000000
  lambda(174)=  0.000000000000
  lambda(175)=  0.000000001870
  lambda(176)=  0.000000003516
  lambda(177)=  0.000000011377
  lambda(178)=  0.000000042223
  lambda(179)=  0.000000054862
  lambda(180)=  0.000000068061
  lambda(181)=  0.000000070070
  lambda(182)=  0.000000118826
  lambda(183)=  0.000000231631
  lambda(184)=  0.000000339030
  lambda(185)=  0.000000389812
  lambda(186)=  0.000000538680
  lambda(187)=  0.000000796784
  lambda(188)=  0.000001049281
  lambda(189)=  0.000001188861
  lambda(190)=  0.000001652784
  lambda(191)=  0.000002408397
  lambda(192)=  0.000002824233
  lambda(193)=  0.000003899753
  lambda(194)=  0.000004770636
  lambda(195)=  0.000005784776
  lambda(196)=  0.000006826060
  lambda(197)=  0.000007980226
  lambda(198)=  0.000009251266
  lambda(199)=  0.000009644748
  lambda(200)=  0.000011934188
  lambda(201)=  0.000015736063
  lambda(202)=  0.000023596444
  lambda(203)=  0.000026765653
  lambda(204)=  0.000031899589
  lambda(205)=  0.000038159344
  lambda(206)=  0.000043691004
  lambda(207)=  0.000056156514
  lambda(208)=  0.000073571754
  lambda(209)=  0.000081107165
  lambda(210)=  0.000099175240
  lambda(211)=  0.000118829022
  lambda(212)=  0.000164628645
  lambda(213)=  0.000195513148
  lambda(214)=  0.000236347062
  lambda(215)=  0.000256982456
  lambda(216)=  0.000312941350
  lambda(217)=  0.000331843894
  lambda(218)=  0.000348609563
  lambda(219)=  0.000546883596
  lambda(220)=  0.000595923061
  lambda(221)=  0.000650147709
  lambda(222)=  0.000696285852
  lambda(223)=  0.000787134999
  lambda(224)=  0.000984501657
  lambda(225)=  0.001116094442
  lambda(226)=  0.001340292396
  lambda(227)=  0.001413166926
  lambda(228)=  0.001585863507
  lambda(229)=  0.001978421716
  lambda(230)=  0.002383842703
  lambda(231)=  0.002625551918
  lambda(232)=  0.002708644027
  lambda(233)=  0.002930413092
  lambda(234)=  0.003337876170
  lambda(235)=  0.004318833105
  lambda(236)=  0.004769122832
  lambda(237)=  0.005360181907
  lambda(238)=  0.006105751152
  lambda(239)=  0.006956602122
  lambda(240)=  0.007399112038
  lambda(241)=  0.008209511679
  lambda(242)=  0.008896418380
  lambda(243)=  0.008919798281
  lambda(244)=  0.010050305793
  lambda(245)=  0.010307379025
  lambda(246)=  0.010864425406
  lambda(247)=  0.011427741758
  lambda(248)=  0.012323996443
  lambda(249)=  0.012875430045
  lambda(250)=  0.013815875990
  lambda(251)=  0.015390632390
  lambda(252)=  0.016074868697
  lambda(253)=  0.017355338297
  lambda(254)=  0.019327143088
  lambda(255)=  0.019851110509
  lambda(256)=  0.022201287414
  lambda(257)=  0.023277768066
  lambda(258)=  0.024644873399
  lambda(259)=  0.024946171686
  lambda(260)=  0.028645905849
  lambda(261)=  0.030353182812
  lambda(262)=  0.032018111125
  lambda(263)=  0.032203390502
  lambda(264)=  0.032976963021
  lambda(265)=  0.034044886321
  lambda(266)=  0.034817641438
  lambda(267)=  0.035959068942
  lambda(268)=  0.036182085046
  lambda(269)=  0.037889264784
  lambda(270)=  0.039593274370
  lambda(271)=  0.043089236290
  lambda(272)=  0.044703219749
  lambda(273)=  0.048514509151
  lambda(274)=  0.048924059571
  lambda(275)=  0.051911047320
  lambda(276)=  0.052295480489
  lambda(277)=  0.054876067239
  lambda(278)=  0.055729939158
  lambda(279)=  0.058044145505
  lambda(280)=  0.058402087706
  lambda(281)=  0.060365325297
  lambda(282)=  0.062068313320
  lambda(283)=  0.063781845111
  lambda(284)=  0.065531149309
  lambda(285)=  0.066559282449
  lambda(286)=  0.068072860457
  lambda(287)=  0.068719411964
  lambda(288)=  0.071497855710
  lambda(289)=  0.075976128163
  lambda(290)=  0.077153581604
  lambda(291)=  0.082024805489
  lambda(292)=  0.084502404151
  lambda(293)=  0.086395039446
  lambda(294)=  0.093236685517
  lambda(295)=  0.099402633566
  lambda(296)=  0.103046641683
  lambda(297)=  0.107331590221
  lambda(298)=  0.109401421348
  lambda(299)=  0.113595128638
  lambda(300)=  0.114325006196
  lambda(301)=  0.117789021510
  lambda(302)=  0.121144398713
  lambda(303)=  0.123528004496
  lambda(304)=  0.125256016050
  lambda(305)=  0.130573493959
  lambda(306)=  0.130656322553
  lambda(307)=  0.133904056201
  lambda(308)=  0.136965343238
  lambda(309)=  0.139635890299
  lambda(310)=  0.146457363306
  lambda(311)=  0.148007809706
  lambda(312)=  0.151510204383
  lambda(313)=  0.160280891312
  lambda(314)=  0.161734530956
  lambda(315)=  0.169259845120
  lambda(316)=  0.169519919190
  lambda(317)=  0.173268103231
  lambda(318)=  0.180260775999
  lambda(319)=  0.181773819620
  lambda(320)=  0.183116881783
  lambda(321)=  0.190193240038
  lambda(322)=  0.194736188358
  lambda(323)=  0.202602382117
  lambda(324)=  0.204134829027
  lambda(325)=  0.210439970112
  lambda(326)=  0.232384437217
  lambda(327)=  0.283712204259
  lambda(328)=  0.298891405848
  lambda(329)=  0.375129579459
  lambda(330)=  0.405589521848
  lambda(331)=  0.574138707828
  lambda(332)=  1.000000000000
  lambda(333)=  1.000000000000
  lambda(334)=  1.000000000000
  lambda(335)=  1.000000000000
  lambda(336)=  1.000000000000
  lambda(337)=  1.000000000000
  lambda(338)=  1.000000000000
  lambda(339)=  1.000000000000
  lambda(340)=  1.000000000000
  lambda(341)=  1.000000000000
  lambda(342)=  1.000000000000
  lambda(343)=  1.000000000000
  lambda(344)=  1.000000000000
  lambda(345)=  1.000000000000
  lambda(346)=  1.000000000000
  lambda(347)=  1.000000000000
  lambda(348)=  1.000000000000
  lambda(349)=  1.000000000000
  lambda(350)=  1.000000000000
  lambda(351)=  1.000000000000
  lambda(352)=  1.000000000000
  lambda(353)=  1.000000000000
  lambda(354)=  1.000000000000
  lambda(355)=  1.000000000000
  lambda(356)=  1.000000000000
  lambda(357)=  1.000000000000
  lambda(358)=  1.000000000000
  lambda(359)=  1.000000000000
  lambda(360)=  1.000000000000
  lambda(361)=  1.000000000000
  lambda(362)=  1.000000000000
  lambda(363)=  1.000000000000
  lambda(364)=  1.000000000000
  lambda(365)=  1.000000000000
  lambda(366)=  1.000000000000
  lambda(367)=  1.000000000000
  lambda(368)=  1.000000000000
  lambda(369)=  1.000000000000
  lambda(370)=  1.000000000000
 done

                   Extraction of optimally-connected subspace                  
                   ------------------------------------------                  
  Original eigenvalues inside outer window:

  K-point   1   -15.77203 -15.44097 -15.32216 -14.92564 -14.65863 -14.41394 -14.30860 -14.13753 -13.96372 -13.72202 -13.68651 -13.66064 -13.52376 -13.49845 -13.46852 -13.29675 -13.19606 -13.18646 -13.09189 -13.05650
-13.04823 -13.03531 -12.98505 -12.96807 -12.95848 -12.93486 -12.92807 -12.88904 -12.85076 -12.83230 -12.83160 -12.78251  -7.26232  -6.81387  -6.60393  -6.55396  -6.42543  -6.28216  -6.24643  -6.07655
 -6.02875  -5.99219  -5.68468  -5.63724  -5.59720  -5.57408  -5.43474  -5.39153  -5.35767  -5.29069  -5.26898  -5.23360  -5.22162  -5.16001  -5.11553  -5.10416  -5.05715  -5.04905  -4.97444  -4.94456
 -4.92608  -4.92281  -4.76071  -4.69297  -4.67811  -4.58909  -4.42189  -4.39803  -4.36510  -4.34544  -4.33650  -4.26779  -4.24726  -4.21528  -4.10760  -4.08739  -4.05599  -4.04117  -4.01978  -4.00065
 -3.96002  -3.93324  -3.91640  -3.70261  -3.68661  -3.55621  -3.51196  -3.49329  -3.45482  -3.43104  -3.37170  -3.35138  -3.32923  -3.30124  -3.23753  -3.17217  -3.13544  -3.08282  -3.05849  -2.97585
 -2.90151  -2.82360  -2.79881  -2.78351  -2.65249  -2.61525  -2.61028  -2.57307  -2.55280  -2.41461  -2.32424  -2.32240  -2.28972  -2.24709  -2.24073  -2.21666  -2.19948  -2.17693  -2.16958  -2.09732
 -2.09165  -2.02543  -2.01250  -1.90029  -1.88499  -1.81642  -1.80603  -1.69459  -1.67988  -1.56689  -1.52176  -1.49132  -1.41036  -1.20995  -1.20729  -1.20275  -1.11156  -1.08816  -1.06233  -0.90323
 -0.88872  -0.85952  -0.76620  -0.59090  -0.23026   0.03447   0.24516   0.27266   0.50605   0.55199   0.77389   0.92609   1.00987   1.03649   1.08434   1.09684   1.13491   1.18691   1.21651   1.28987
  1.29903   1.32475   1.37923   1.41815   1.48900   1.55350   1.57664   1.58128   1.60210   1.63798   1.64490   1.66869   1.69819   1.73196   1.76617   1.79859   1.84359   1.87256   1.94388   1.96226
  1.98764   2.00444   2.03002   2.05630   2.07384   2.09019   2.10693   2.11728   2.14279   2.16661   2.23006   2.26032   2.27415   2.32993   2.39009   2.42148   2.46292   2.47891   2.51657   2.59260
  2.60193   2.63056   2.65842   2.74161   2.77203   2.83005   2.88115   2.96224   3.00313   3.06231   3.13922   3.16445   3.25068   3.33851   3.37645   3.41076   3.46668   3.48839   3.58610   3.60714
  3.63513   3.69298   3.71261   3.75850   3.77515   3.81720   3.89813   3.93685   4.02387   4.06255   4.23812   4.31924   4.36747   4.38690   4.48864   4.52279   4.53439   4.56591   4.64166   4.72334
  4.84816   4.90748   4.94300   4.97765   5.00099   5.00965   5.01262   5.01755   5.06517   5.08693   5.13637   5.17097   5.17410   5.20290   5.41093   5.44652   5.59355   5.68549   5.70701   5.82343
  5.83778   5.90708   5.92883   5.94168   5.95477   6.00588   6.01296   6.02042   6.03476   6.10135   6.13874   6.19528   6.25037   6.27623   6.29250   6.30750   6.34091   6.36870   6.37657   6.42013
  6.43832   6.48485   6.50408   6.52442   6.52630   6.56578   6.58563   6.59515   6.69041   6.74086   6.74408   6.76004   6.82522   6.83239   6.84702   6.97358   6.98233   7.01268   7.03162   7.04414
  7.04840   7.06008   7.06660   7.07997   7.09739   7.12106   7.16223   7.16852   7.28414   7.30673   7.36009   7.36272   7.39082   7.41608   7.43628   7.47204   7.48676   7.53829   7.54202   7.56042
  7.58248   7.61755   7.67233   7.69867   7.70758   7.72653   7.72833   7.73930   7.75014   7.75135   7.75471   7.77318   7.80773   7.87218   7.87798   7.89296   7.92700   7.93990   7.97299   8.02714
  8.04857   8.07704   8.08290   8.11798   8.12804   8.13349   8.13819   8.17464   8.17620   8.20465   8.21909   8.39537   8.40737   8.43107   8.44594   8.46818   8.49516   8.51077   8.52642   8.56121
  8.57415   8.60095   8.61225   8.64696   8.64987   8.66836   8.68147   8.70084   8.74645   8.89899
 +---------------------------------------------------------------------+<-- DIS
 |  Iter     Omega_I(i-1)      Omega_I(i)      Delta (frac.)    Time   |<-- DIS
 +---------------------------------------------------------------------+<-- DIS
       1     332.84805342     328.53005506       1.314E-02      0.00    <-- DIS
       2     329.24860584     327.21481606       6.215E-03      0.20    <-- DIS
       3     327.80099458     326.29193750       4.625E-03      0.40    <-- DIS
       4     326.71343466     325.60393742       3.408E-03      0.60    <-- DIS
       5     325.89525598     325.07690527       2.517E-03      0.80    <-- DIS
       6     325.27408761     324.66476055       1.877E-03      1.00    <-- DIS
       7     324.79627421     324.33684757       1.417E-03      1.20    <-- DIS
       8     324.42329014     324.07206790       1.084E-03      1.40    <-- DIS
       9     324.12777040     323.85550861       8.407E-04      1.60    <-- DIS
      10     323.89026355     323.67638569       6.608E-04      1.80    <-- DIS
      11     323.69684010     323.52674425       5.258E-04      2.01    <-- DIS
      12     323.53741086     323.40061292       4.230E-04      2.21    <-- DIS
      13     323.40456886     323.29343957       3.437E-04      2.41    <-- DIS
      14     323.29279745     323.20170611       2.818E-04      2.61    <-- DIS
      15     323.19792814     323.12266022       2.329E-04      2.81    <-- DIS
      16     323.11676694     323.05412490       1.939E-04      3.01    <-- DIS
      17     323.04683435     322.99436114       1.625E-04      3.21    <-- DIS
      18     322.98618208     322.94196733       1.369E-04      3.41    <-- DIS
      19     322.93326227     322.89580456       1.160E-04      3.61    <-- DIS
      20     322.88683276     322.85494044       9.878E-05      3.81    <-- DIS
      21     322.84588758     322.81860644       8.451E-05      4.01    <-- DIS
      22     322.80960532     322.78616505       7.262E-05      4.21    <-- DIS
      23     322.77731015     322.75708432       6.267E-05      4.41    <-- DIS
      24     322.74844217     322.73091797       5.430E-05      4.61    <-- DIS
      25     322.72253464     322.70728965       4.724E-05      4.81    <-- DIS
      26     322.69919613     322.68588046       4.127E-05      5.02    <-- DIS
      27     322.67809663     322.66641896       3.619E-05      5.22    <-- DIS
      28     322.65895647     322.64867309       3.187E-05      5.42    <-- DIS
      29     322.64153754     322.63244368       2.819E-05      5.62    <-- DIS
      30     322.62563622     322.61755912       2.504E-05      5.82    <-- DIS
      31     322.61107762     322.60387097       2.234E-05      6.02    <-- DIS
      32     322.59771094     322.59125042       2.003E-05      6.22    <-- DIS
      33     322.58540568     322.57958528       1.804E-05      6.42    <-- DIS
      34     322.57404846     322.56877755       1.634E-05      6.62    <-- DIS
      35     322.56354049     322.55874134       1.488E-05      6.82    <-- DIS
      36     322.55379535     322.54940116       1.362E-05      7.02    <-- DIS
      37     322.54473725     322.54069044       1.255E-05      7.22    <-- DIS
      38     322.53629949     322.53255037       1.162E-05      7.42    <-- DIS
      39     322.52842323     322.52492878       1.083E-05      7.63    <-- DIS
      40     322.52105639     322.51777934       1.016E-05      7.83    <-- DIS
      41     322.51415276     322.51106076       9.587E-06      8.03    <-- DIS
      42     322.50767125     322.50473617       9.101E-06      8.23    <-- DIS
      43     322.50157518     322.49877257       8.690E-06      8.43    <-- DIS
      44     322.49583180     322.49314035       8.346E-06      8.63    <-- DIS
      45     322.49041175     322.48781289       8.059E-06      8.83    <-- DIS
      46     322.48528866     322.48276619       7.822E-06      9.03    <-- DIS
      47     322.48043880     322.47797859       7.629E-06      9.23    <-- DIS
      48     322.47584079     322.47343052       7.474E-06      9.43    <-- DIS
      49     322.47147528     322.46910420       7.353E-06      9.63    <-- DIS
      50     322.46732477     322.46498352       7.260E-06      9.83    <-- DIS
      51     322.46337338     322.46105380       7.193E-06     10.03    <-- DIS
      52     322.45960670     322.45730168       7.148E-06     10.23    <-- DIS
      53     322.45601158     322.45371496       7.122E-06     10.43    <-- DIS
      54     322.45257605     322.45028249       7.113E-06     10.63    <-- DIS
      55     322.44928919     322.44699406       7.118E-06     10.83    <-- DIS
      56     322.44614098     322.44384031       7.135E-06     11.03    <-- DIS
      57     322.44312228     322.44081263       7.163E-06     11.23    <-- DIS
      58     322.44022468     322.43790312       7.200E-06     11.43    <-- DIS
      59     322.43744046     322.43510450       7.245E-06     11.63    <-- DIS
      60     322.43476251     322.43241007       7.296E-06     11.83    <-- DIS
      61     322.43218431     322.42981361       7.353E-06     12.03    <-- DIS
      62     322.42969982     322.42730942       7.414E-06     12.23    <-- DIS
      63     322.42730347     322.42489218       7.479E-06     12.43    <-- DIS
      64     322.42499012     322.42255699       7.546E-06     12.63    <-- DIS
      65     322.42275500     322.42029930       7.616E-06     12.83    <-- DIS
      66     322.42059371     322.41811487       7.688E-06     13.03    <-- DIS
      67     322.41850214     322.41599978       7.761E-06     13.23    <-- DIS
      68     322.41647651     322.41395038       7.835E-06     13.46    <-- DIS
      69     322.41451327     322.41196326       7.909E-06     13.68    <-- DIS
      70     322.41260915     322.41003524       7.983E-06     13.88    <-- DIS
      71     322.41076109     322.40816338       8.057E-06     14.08    <-- DIS
      72     322.40896624     322.40634490       8.131E-06     14.28    <-- DIS
      73     322.40722193     322.40457722       8.203E-06     14.48    <-- DIS
      74     322.40552569     322.40285792       8.275E-06     14.68    <-- DIS
      75     322.40387520     322.40118475       8.345E-06     14.88    <-- DIS
      76     322.40226829     322.39955557       8.414E-06     15.08    <-- DIS
      77     322.40070293     322.39796841       8.482E-06     15.28    <-- DIS
      78     322.39917721     322.39642139       8.548E-06     15.48    <-- DIS
      79     322.39768936     322.39491277       8.612E-06     15.68    <-- DIS
      80     322.39623770     322.39344089       8.675E-06     15.88    <-- DIS
      81     322.39482065     322.39200420       8.736E-06     16.08    <-- DIS
      82     322.39343675     322.39060126       8.795E-06     16.28    <-- DIS
      83     322.39208461     322.38923067       8.852E-06     16.48    <-- DIS
      84     322.39076291     322.38789115       8.908E-06     16.68    <-- DIS
      85     322.38947043     322.38658147       8.961E-06     16.88    <-- DIS
      86     322.38820601     322.38530049       9.013E-06     17.08    <-- DIS
      87     322.38696856     322.38404710       9.062E-06     17.28    <-- DIS
      88     322.38575704     322.38282027       9.110E-06     17.48    <-- DIS
      89     322.38457048     322.38161904       9.155E-06     17.68    <-- DIS
      90     322.38340796     322.38044248       9.199E-06     17.88    <-- DIS
      91     322.38226860     322.37928971       9.240E-06     18.08    <-- DIS
      92     322.38115159     322.37815991       9.280E-06     18.28    <-- DIS
      93     322.38005614     322.37705228       9.318E-06     18.49    <-- DIS
      94     322.37898151     322.37596608       9.354E-06     18.69    <-- DIS
      95     322.37792700     322.37490061       9.388E-06     18.89    <-- DIS
      96     322.37689194     322.37385519       9.420E-06     19.09    <-- DIS
      97     322.37587571     322.37282917       9.450E-06     19.29    <-- DIS
      98     322.37487770     322.37182195       9.479E-06     19.49    <-- DIS
      99     322.37389734     322.37083295       9.506E-06     19.69    <-- DIS
     100     322.37293408     322.36986161       9.531E-06     19.89    <-- DIS
     101     322.37198742     322.36890741       9.554E-06     20.09    <-- DIS
     102     322.37105685     322.36796984       9.576E-06     20.29    <-- DIS
     103     322.37014192     322.36704842       9.596E-06     20.49    <-- DIS
     104     322.36924216     322.36614270       9.615E-06     20.69    <-- DIS
     105     322.36835715     322.36525223       9.632E-06     20.89    <-- DIS
     106     322.36748649     322.36437660       9.647E-06     21.09    <-- DIS
     107     322.36662978     322.36351540       9.661E-06     21.29    <-- DIS
     108     322.36578665     322.36266826       9.674E-06     21.48    <-- DIS
     109     322.36495675     322.36183479       9.685E-06     21.68    <-- DIS
     110     322.36413972     322.36101466       9.694E-06     21.88    <-- DIS
     111     322.36333525     322.36020752       9.703E-06     22.08    <-- DIS
     112     322.36254302     322.35941304       9.710E-06     22.28    <-- DIS
     113     322.36176274     322.35863092       9.715E-06     22.48    <-- DIS
     114     322.36099410     322.35786086       9.720E-06     22.68    <-- DIS
     115     322.36023683     322.35710257       9.723E-06     22.89    <-- DIS
     116     322.35949067     322.35635576       9.725E-06     23.09    <-- DIS
     117     322.35875536     322.35562019       9.726E-06     23.29    <-- DIS
     118     322.35803066     322.35489558       9.726E-06     23.49    <-- DIS
     119     322.35731632     322.35418169       9.724E-06     23.69    <-- DIS
     120     322.35661212     322.35347828       9.722E-06     23.90    <-- DIS
     121     322.35591784     322.35278513       9.718E-06     24.10    <-- DIS
     122     322.35523326     322.35210201       9.714E-06     24.30    <-- DIS
     123     322.35455819     322.35142871       9.708E-06     24.50    <-- DIS
     124     322.35389241     322.35076502       9.702E-06     24.71    <-- DIS
     125     322.35323575     322.35011074       9.694E-06     24.90    <-- DIS
     126     322.35258802     322.34946569       9.686E-06     25.10    <-- DIS
     127     322.35194904     322.34882966       9.677E-06     25.31    <-- DIS
     128     322.35131864     322.34820249       9.667E-06     25.51    <-- DIS
     129     322.35069664     322.34758399       9.656E-06     25.71    <-- DIS
     130     322.35008290     322.34697400       9.645E-06     25.91    <-- DIS
     131     322.34947725     322.34637235       9.632E-06     26.11    <-- DIS
     132     322.34887954     322.34577889       9.619E-06     26.31    <-- DIS
     133     322.34828962     322.34519345       9.605E-06     26.51    <-- DIS
     134     322.34770736     322.34461590       9.591E-06     26.72    <-- DIS
     135     322.34713261     322.34404608       9.575E-06     26.92    <-- DIS
     136     322.34656524     322.34348386       9.559E-06     27.12    <-- DIS
     137     322.34600511     322.34292909       9.543E-06     27.32    <-- DIS
     138     322.34545211     322.34238164       9.525E-06     27.52    <-- DIS
     139     322.34490611     322.34184139       9.508E-06     27.71    <-- DIS
     140     322.34436699     322.34130820       9.489E-06     27.91    <-- DIS
     141     322.34383463     322.34078196       9.470E-06     28.11    <-- DIS
     142     322.34330891     322.34026254       9.451E-06     28.31    <-- DIS
     143     322.34278974     322.33974983       9.431E-06     28.51    <-- DIS
     144     322.34227699     322.33924372       9.410E-06     28.71    <-- DIS
     145     322.34177058     322.33874409       9.389E-06     28.91    <-- DIS
     146     322.34127038     322.33825084       9.368E-06     29.11    <-- DIS
     147     322.34077631     322.33776386       9.346E-06     29.31    <-- DIS
     148     322.34028826     322.33728305       9.323E-06     29.51    <-- DIS
     149     322.33980615     322.33680831       9.300E-06     29.71    <-- DIS
     150     322.33932987     322.33633954       9.277E-06     29.91    <-- DIS
     151     322.33885934     322.33587664       9.253E-06     30.11    <-- DIS
     152     322.33839447     322.33541954       9.229E-06     30.31    <-- DIS
     153     322.33793518     322.33496812       9.205E-06     30.52    <-- DIS
     154     322.33748137     322.33452231       9.180E-06     30.72    <-- DIS
     155     322.33703297     322.33408201       9.155E-06     30.91    <-- DIS
     156     322.33658990     322.33364715       9.130E-06     31.12    <-- DIS
     157     322.33615207     322.33321764       9.104E-06     31.32    <-- DIS
     158     322.33571941     322.33279339       9.078E-06     31.52    <-- DIS
     159     322.33529185     322.33237434       9.051E-06     31.72    <-- DIS
     160     322.33486930     322.33196039       9.025E-06     31.92    <-- DIS
     161     322.33445170     322.33155148       8.998E-06     32.11    <-- DIS
     162     322.33403898     322.33114753       8.970E-06     32.31    <-- DIS
     163     322.33363106     322.33074847       8.943E-06     32.51    <-- DIS
     164     322.33322788     322.33035422       8.915E-06     32.71    <-- DIS
     165     322.33282937     322.32996472       8.887E-06     32.91    <-- DIS
     166     322.33243547     322.32957989       8.859E-06     33.11    <-- DIS
     167     322.33204611     322.32919967       8.831E-06     33.31    <-- DIS
     168     322.33166123     322.32882399       8.802E-06     33.51    <-- DIS
     169     322.33128076     322.32845280       8.774E-06     33.71    <-- DIS
     170     322.33090465     322.32808601       8.745E-06     33.91    <-- DIS
     171     322.33053284     322.32772358       8.716E-06     34.11    <-- DIS
     172     322.33016526     322.32736544       8.686E-06     34.31    <-- DIS
     173     322.32980186     322.32701153       8.657E-06     34.51    <-- DIS
     174     322.32944259     322.32666180       8.627E-06     34.71    <-- DIS
     175     322.32908739     322.32631617       8.598E-06     34.91    <-- DIS
     176     322.32873620     322.32597461       8.568E-06     35.11    <-- DIS
     177     322.32838896     322.32563704       8.538E-06     35.31    <-- DIS
     178     322.32804564     322.32530343       8.508E-06     35.51    <-- DIS
     179     322.32770618     322.32497370       8.477E-06     35.71    <-- DIS
     180     322.32737052     322.32464781       8.447E-06     35.91    <-- DIS
     181     322.32703861     322.32432572       8.417E-06     36.11    <-- DIS
     182     322.32671041     322.32400736       8.386E-06     36.31    <-- DIS
     183     322.32638587     322.32369268       8.356E-06     36.51    <-- DIS
     184     322.32606494     322.32338164       8.325E-06     36.71    <-- DIS
     185     322.32574758     322.32307419       8.294E-06     36.91    <-- DIS
     186     322.32543373     322.32277029       8.263E-06     37.11    <-- DIS
     187     322.32512336     322.32246987       8.232E-06     37.32    <-- DIS
     188     322.32481642     322.32217290       8.201E-06     37.52    <-- DIS
     189     322.32451286     322.32187934       8.170E-06     37.72    <-- DIS
     190     322.32421264     322.32158913       8.139E-06     37.92    <-- DIS
     191     322.32391572     322.32130224       8.108E-06     38.12    <-- DIS
     192     322.32362207     322.32101862       8.077E-06     38.32    <-- DIS
     193     322.32333162     322.32073822       8.046E-06     38.52    <-- DIS
     194     322.32304436     322.32046101       8.015E-06     38.72    <-- DIS
     195     322.32276023     322.32018695       7.984E-06     38.93    <-- DIS
     196     322.32247920     322.31991599       7.952E-06     39.13    <-- DIS
     197     322.32220123     322.31964810       7.921E-06     39.33    <-- DIS
     198     322.32192628     322.31938323       7.890E-06     39.53    <-- DIS
     199     322.32165432     322.31912134       7.859E-06     39.74    <-- DIS
     200     322.32138530     322.31886241       7.827E-06     39.94    <-- DIS
     201     322.32111919     322.31860638       7.796E-06     40.14    <-- DIS
     202     322.32085596     322.31835323       7.765E-06     40.34    <-- DIS
     203     322.32059557     322.31810292       7.733E-06     40.54    <-- DIS
     204     322.32033798     322.31785541       7.702E-06     40.74    <-- DIS
     205     322.32008316     322.31761067       7.671E-06     40.94    <-- DIS
     206     322.31983108     322.31736865       7.640E-06     41.14    <-- DIS
     207     322.31958170     322.31712934       7.609E-06     41.35    <-- DIS
     208     322.31933500     322.31689269       7.577E-06     41.55    <-- DIS
     209     322.31909093     322.31665867       7.546E-06     41.75    <-- DIS
     210     322.31884947     322.31642725       7.515E-06     41.95    <-- DIS
     211     322.31861059     322.31619839       7.484E-06     42.15    <-- DIS
     212     322.31837425     322.31597206       7.453E-06     42.35    <-- DIS
     213     322.31814042     322.31574824       7.422E-06     42.56    <-- DIS
     214     322.31790908     322.31552689       7.391E-06     42.76    <-- DIS
     215     322.31768019     322.31530798       7.360E-06     42.96    <-- DIS
     216     322.31745373     322.31509149       7.329E-06     43.16    <-- DIS
     217     322.31722966     322.31487737       7.298E-06     43.36    <-- DIS
     218     322.31700797     322.31466561       7.267E-06     43.56    <-- DIS
     219     322.31678861     322.31445616       7.237E-06     43.76    <-- DIS
     220     322.31657156     322.31424902       7.206E-06     43.96    <-- DIS
     221     322.31635680     322.31404414       7.175E-06     44.17    <-- DIS
     222     322.31614430     322.31384150       7.145E-06     44.37    <-- DIS
     223     322.31593402     322.31364108       7.114E-06     44.57    <-- DIS
     224     322.31572596     322.31344284       7.084E-06     44.77    <-- DIS
     225     322.31552007     322.31324676       7.053E-06     44.97    <-- DIS
     226     322.31531634     322.31305281       7.023E-06     45.17    <-- DIS
     227     322.31511473     322.31286097       6.992E-06     45.37    <-- DIS
     228     322.31491523     322.31267121       6.962E-06     45.58    <-- DIS
     229     322.31471781     322.31248351       6.932E-06     45.78    <-- DIS
     230     322.31452244     322.31229785       6.902E-06     45.98    <-- DIS
     231     322.31432911     322.31211419       6.872E-06     46.18    <-- DIS
     232     322.31413778     322.31193251       6.842E-06     46.38    <-- DIS
     233     322.31394844     322.31175280       6.812E-06     46.58    <-- DIS
     234     322.31376106     322.31157502       6.782E-06     46.78    <-- DIS
     235     322.31357562     322.31139916       6.753E-06     46.98    <-- DIS
     236     322.31339209     322.31122519       6.723E-06     47.19    <-- DIS
     237     322.31321046     322.31105309       6.693E-06     47.39    <-- DIS
     238     322.31303071     322.31088284       6.664E-06     47.59    <-- DIS
     239     322.31285280     322.31071441       6.635E-06     47.79    <-- DIS
     240     322.31267673     322.31054779       6.605E-06     47.99    <-- DIS
     241     322.31250247     322.31038295       6.576E-06     48.19    <-- DIS
     242     322.31232999     322.31021987       6.547E-06     48.39    <-- DIS
     243     322.31215929     322.31005854       6.518E-06     48.60    <-- DIS
     244     322.31199033     322.30989892       6.489E-06     48.80    <-- DIS
     245     322.31182310     322.30974101       6.460E-06     49.00    <-- DIS
     246     322.31165758     322.30958477       6.431E-06     49.20    <-- DIS
     247     322.31149375     322.30943020       6.402E-06     49.40    <-- DIS
     248     322.31133159     322.30927727       6.374E-06     49.60    <-- DIS
     249     322.31117109     322.30912596       6.345E-06     49.80    <-- DIS
     250     322.31101222     322.30897626       6.317E-06     50.00    <-- DIS
     251     322.31085496     322.30882814       6.288E-06     50.20    <-- DIS
     252     322.31069930     322.30868159       6.260E-06     50.40    <-- DIS
     253     322.31054521     322.30853658       6.232E-06     50.60    <-- DIS
     254     322.31039269     322.30839311       6.204E-06     50.80    <-- DIS
     255     322.31024172     322.30825115       6.176E-06     51.00    <-- DIS
     256     322.31009227     322.30811069       6.148E-06     51.20    <-- DIS
     257     322.30994433     322.30797171       6.120E-06     51.40    <-- DIS
     258     322.30979788     322.30783419       6.093E-06     51.60    <-- DIS
[...]
  WF centre and spread  110  (  5.159182,  1.044728,  3.475940 )     2.02530923
  WF centre and spread  111  (  5.158713,  1.046658,  3.315482 )     1.82386952
  WF centre and spread  112  (  5.160450,  1.062714,  3.315857 )     1.86261590
  WF centre and spread  113  ( -5.174509,  0.984263, -0.136735 )     2.00163633
  WF centre and spread  114  ( -5.158878,  0.960225,  0.008567 )     1.82552240
  WF centre and spread  115  ( -5.166149,  0.972242,  0.003663 )     1.81982393
  WF centre and spread  116  ( -5.156842,  1.047398,  3.472096 )     2.03028491
  WF centre and spread  117  ( -5.157594,  1.047243,  3.316051 )     1.82378143
  WF centre and spread  118  ( -5.158672,  1.067163,  3.317782 )     1.86217716
  WF centre and spread  119  ( -1.731749,  1.007445, -0.070622 )     2.03949577
  WF centre and spread  120  ( -1.731985,  0.986420,  0.063139 )     1.80837883
  WF centre and spread  121  ( -1.727958,  0.995718,  0.057408 )     1.81352823
  WF centre and spread  122  ( -1.722800,  0.972799,  3.485263 )     2.05107382
  WF centre and spread  123  ( -1.726067,  0.977845,  3.336039 )     1.82847830
  WF centre and spread  124  ( -1.723485,  0.995030,  3.337362 )     1.88746854
  WF centre and spread  125  ( -3.425022,  4.007138, -0.135627 )     2.01626346
  WF centre and spread  126  ( -3.424143,  3.983692,  0.021146 )     1.83068881
  WF centre and spread  127  ( -3.427241,  4.012188,  0.009960 )     1.82933543
  WF centre and spread  128  ( -3.512999,  3.958682,  3.478635 )     2.01611808
  WF centre and spread  129  ( -3.486100,  3.937466,  3.325923 )     1.82810129
  WF centre and spread  130  ( -3.507417,  3.977812,  3.328376 )     1.82104736
  WF centre and spread  131  (  1.750473, -4.976624, -0.113196 )     2.02066257
  WF centre and spread  132  (  1.735661, -4.975501,  0.014398 )     1.79776223
  WF centre and spread  133  (  1.744365, -4.941399,  0.033052 )     1.87622532
  WF centre and spread  134  (  1.447586, -4.906803,  3.769513 )     2.03521194
  WF centre and spread  135  (  2.216856, -4.787777,  3.684182 )     1.64569981
  WF centre and spread  136  (  1.774534, -5.477603,  3.469548 )     1.50008829
  WF centre and spread  137  (  0.002673, -2.001095, -0.048930 )     2.06407403
  WF centre and spread  138  (  0.007578, -2.018155,  0.079400 )     1.83501463
  WF centre and spread  139  ( -0.000780, -1.979925,  0.071558 )     1.82347966
  WF centre and spread  140  (  0.021367, -2.181148,  3.507178 )     2.13750102
  WF centre and spread  141  ( -0.062582, -1.982834,  3.383225 )     1.77280423
  WF centre and spread  142  (  0.033526, -1.825214,  3.474229 )     1.76008662
  WF centre and spread  143  ( -3.490416, -2.019396,  0.004606 )     2.06086150
  WF centre and spread  144  ( -3.486548, -2.035324,  0.129581 )     1.83210601
  WF centre and spread  145  ( -3.486902, -2.001029,  0.125127 )     1.82188029
  WF centre and spread  146  ( -3.400553, -2.150494,  3.548176 )     2.09111564
  WF centre and spread  147  ( -3.391411, -1.952625,  3.419290 )     1.76327582
  WF centre and spread  148  ( -3.380073, -1.805950,  3.542438 )     1.78833551
  WF centre and spread  149  ( -0.001012,  9.895706,  0.085415 )     2.05241200
  WF centre and spread  150  (  0.000214,  9.889867,  0.184751 )     1.82722453
  WF centre and spread  151  ( -0.000612,  9.912055,  0.188723 )     1.82589258
  WF centre and spread  152  (  0.001502, 10.042601,  3.609681 )     2.11095399
  WF centre and spread  153  (  0.009085, 10.213347,  3.531081 )     1.78485889
  WF centre and spread  154  ( -0.013502, 10.304229,  3.610483 )     1.85069545
  WF centre and spread  155  (  3.489224, -2.013637,  0.012506 )     2.10081897
  WF centre and spread  156  (  3.480571, -2.031685,  0.129630 )     1.84103729
  WF centre and spread  157  (  3.489242, -2.007859,  0.126344 )     1.82742297
  WF centre and spread  158  (  3.404611, -2.128450,  3.537289 )     2.09862457
  WF centre and spread  159  (  3.346325, -1.973445,  3.432440 )     1.80261168
  WF centre and spread  160  (  3.413798, -1.833139,  3.525989 )     1.81119192
  WF centre and spread  161  ( -0.004332, -7.940931, -0.192046 )     2.04781429
  WF centre and spread  162  (  0.004827, -7.968947, -0.048236 )     1.81943287
  WF centre and spread  163  ( -0.002270, -7.937172, -0.052770 )     1.84278381
  WF centre and spread  164  ( -0.001172, -7.948600,  3.446167 )     2.04042689
  WF centre and spread  165  (  0.003883, -7.959652,  3.310520 )     1.82197686
  WF centre and spread  166  ( -0.001139, -7.909730,  3.307260 )     1.85631715
  WF centre and spread  167  ( -1.735250, -4.979383, -0.101611 )     2.07954482
  WF centre and spread  168  ( -1.742431, -4.974417,  0.015054 )     1.81028298
  WF centre and spread  169  ( -1.739008, -4.944761,  0.033359 )     1.88528988
  WF centre and spread  170  ( -1.889871, -4.911103,  3.544067 )     2.00890215
  WF centre and spread  171  ( -1.408030, -4.900488,  3.548162 )     2.03574424
  WF centre and spread  172  ( -1.657503, -5.181785,  3.429788 )     1.71866451
  WF centre and spread  173  (  1.665484,  6.976017,  0.069551 )     2.04093248
  WF centre and spread  174  (  1.683002,  6.968272,  0.189387 )     1.81765717
  WF centre and spread  175  (  1.688556,  7.008107,  0.199293 )     1.85361152
  WF centre and spread  176  (  2.147624,  6.918827,  3.748040 )     1.99821723
  WF centre and spread  177  (  1.584228,  6.999495,  3.750116 )     1.98256298
  WF centre and spread  178  (  1.896192,  6.553338,  3.665993 )     1.70758931
  WF centre and spread  179  (  3.428044,  4.005966, -0.138367 )     1.99191401
  WF centre and spread  180  (  3.420325,  3.979236,  0.015876 )     1.81502201
  WF centre and spread  181  (  3.424025,  4.005691,  0.007635 )     1.81714978
  WF centre and spread  182  (  3.505350,  3.948146,  3.471665 )     2.01877496
  WF centre and spread  183  (  3.488706,  3.935831,  3.323999 )     1.82967395
  WF centre and spread  184  (  3.505648,  3.993653,  3.331022 )     1.82577647
  WF centre and spread  185  ( -0.000012,  4.050521, -0.003353 )     2.07665627
  WF centre and spread  186  ( -0.000175,  4.019410,  0.134714 )     1.81504634
  WF centre and spread  187  ( -0.001718,  4.044873,  0.116794 )     1.81584825
  WF centre and spread  188  ( -0.000348,  3.944153,  3.558930 )     2.05306597
  WF centre and spread  189  (  0.005511,  3.914964,  3.411057 )     1.82205747
  WF centre and spread  190  ( -0.000667,  3.991079,  3.381716 )     1.87647357
  WF centre and spread  191  ( -1.666264,  6.981823,  0.063817 )     2.02347086
  WF centre and spread  192  ( -1.692274,  6.968901,  0.195418 )     1.83784115
  WF centre and spread  193  ( -1.690780,  7.005049,  0.199829 )     1.84435246
  WF centre and spread  194  ( -2.237888,  6.905378,  3.940981 )     1.91012862
  WF centre and spread  195  ( -1.427052,  7.104852,  3.873305 )     2.13442183
  WF centre and spread  196  ( -1.861284,  6.486837,  3.652565 )     1.68922212
  Sum of centres and spreads ( -3.876264, -8.578467,387.537389 )   352.57016147
 
         Spreads (Ang^2)       Omega I      =   322.294097760
        ================       Omega D      =     0.006388965
                               Omega OD     =    30.269674959
    Final Spread (Ang^2)       Omega Total  =   352.570161684
 ------------------------------------------------------------------------------
 Final centres (translated to home cell for writing xyz file)
  WF centre    1  ( -0.009412,  7.820731,  4.665747 )
  WF centre    2  ( -0.004251,  7.958069,  3.977061 )
  WF centre    3  ( -0.015252,  7.934618,  3.922769 )
  WF centre    4  ( -0.079070,  7.865756,  3.881627 )
  WF centre    5  (  0.096349,  8.084211,  3.853635 )
  WF centre    6  ( -3.364067, -3.962471,  4.379716 )
  WF centre    7  ( -3.527728, -3.992349,  3.872589 )
  WF centre    8  ( -3.521389, -4.008637,  3.913049 )
  WF centre    9  ( -3.423955, -4.098956,  3.889466 )
  WF centre   10  ( -3.689519, -3.873529,  3.972517 )
  WF centre   11  (  0.173942, -3.969758,  4.418579 )
  WF centre   12  (  0.413826, -4.081533,  3.828580 )
  WF centre   13  (  0.215329, -3.987183,  3.931849 )
  WF centre   14  (  0.186912, -4.083441,  3.844085 )
  WF centre   15  (  0.410527, -3.878194,  3.915443 )
  WF centre   16  (  3.632636, -3.974176,  4.200710 )
  WF centre   17  (  3.720725, -4.019321,  3.872939 )
  WF centre   18  (  3.736917, -3.992668,  3.865672 )
  WF centre   19  (  3.586937, -4.055461,  3.898367 )
  WF centre   20  (  3.865956, -3.901293,  3.945483 )
  WF centre   21  ( -0.060146, -0.032122,  1.702271 )
  WF centre   22  ( -0.001685, -0.005050,  1.695118 )
  WF centre   23  (  0.000053, -0.032632,  1.726450 )
  WF centre   24  ( -0.016447,  0.108937,  1.703552 )
  WF centre   25  (  0.079997, -0.125435,  1.701437 )
  WF centre   26  (  3.416917, -0.028103,  1.715047 )
  WF centre   27  (  3.469397, -0.004117,  1.702028 )
  WF centre   28  (  3.465895, -0.034083,  1.738545 )
  WF centre   29  (  3.439434,  0.115363,  1.709949 )
  WF centre   30  (  3.561235, -0.123288,  1.716749 )
  WF centre   31  ( -0.009423,-11.904088,  1.685649 )
  WF centre   32  ( -0.000078,-11.893603,  1.684346 )
  WF centre   33  ( -0.000105, 11.954409,  1.722381 )
  WF centre   34  ( -0.004509,-11.762956,  1.687004 )
  WF centre   35  (  0.016410, 11.844316,  1.687795 )
  WF centre   36  ( -3.400508, -0.038229,  1.715429 )
  WF centre   37  ( -3.468937, -0.001885,  1.700720 )
  WF centre   38  ( -3.468135, -0.033488,  1.736323 )
  WF centre   39  ( -3.443277,  0.111282,  1.707520 )
  WF centre   40  ( -3.575878, -0.106381,  1.714180 )
  WF centre   41  ( -5.158954,  2.987960,  1.618686 )
  WF centre   42  (  1.691582, -8.944488,  1.620156 )
  WF centre   43  (  1.690818, -8.928582,  1.632562 )
  WF centre   44  (  1.708072, -8.785436,  1.619201 )
  WF centre   45  (  1.631140, -9.047728,  1.618790 )
  WF centre   46  ( -0.003442, -6.001326,  1.630018 )
  WF centre   47  (  0.082087, -5.983932,  1.717891 )
  WF centre   48  ( -0.004254, -5.971433,  1.645313 )
  WF centre   49  ( -0.010918, -5.872431,  1.647128 )
  WF centre   50  ( -0.025952, -6.095513,  1.628189 )
  WF centre   51  ( -1.706233, -3.019520,  1.726679 )
  WF centre   52  ( -1.737301, -3.016361,  1.729761 )
  WF centre   53  ( -1.731337, -3.012441,  1.729011 )
  WF centre   54  ( -1.715064, -2.887392,  1.730633 )
  WF centre   55  ( -1.781971, -3.149789,  1.745527 )
  WF centre   56  ( -5.135407, -3.001739,  1.875877 )
  WF centre   57  (  1.713405,  8.941343,  1.873975 )
  WF centre   58  (  1.734044,  8.936817,  1.895402 )
  WF centre   59  ( -5.101854, -2.891359,  1.877512 )
  WF centre   60  (  1.579046,  8.847559,  1.926080 )
  WF centre   61  (  5.133493, -2.999409,  1.875870 )
  WF centre   62  ( -1.713686,  8.940802,  1.868771 )
  WF centre   63  ( -1.736294,  8.940915,  1.892291 )
  WF centre   64  (  5.098271, -2.891050,  1.881461 )
  WF centre   65  ( -1.569810,  8.842980,  1.940061 )
  WF centre   66  (  1.700085, -3.020524,  1.722619 )
  WF centre   67  (  1.732558, -3.018528,  1.733769 )
  WF centre   68  (  1.722635, -3.058654,  1.762641 )
  WF centre   69  (  1.708172, -2.890713,  1.740929 )
  WF centre   70  (  1.806883, -3.128258,  1.736210 )
  WF centre   71  (  5.153761,  2.985060,  1.617535 )
  WF centre   72  ( -1.692519, -8.946028,  1.620177 )
  WF centre   73  ( -1.691785, -8.928852,  1.637414 )
  WF centre   74  ( -1.712381, -8.790099,  1.617629 )
  WF centre   75  ( -1.617386, -9.042728,  1.616121 )
  WF centre   76  ( -3.422028, -5.996275,  1.677997 )
  WF centre   77  ( -3.409423, -5.984266,  1.751315 )
  WF centre   78  ( -3.395924, -5.969497,  1.696287 )
  WF centre   79  ( -3.428555, -5.849174,  1.728747 )
  WF centre   80  ( -3.342096, -6.087017,  1.689090 )
  WF centre   81  (  0.002540,  5.963192,  1.900431 )
  WF centre   82  ( -0.011449,  5.972114,  1.922907 )
  WF centre   83  (  0.001810,  6.143411,  1.959956 )
  WF centre   84  (  0.014286,  6.016252,  1.832359 )
  WF centre   85  ( -0.016577,  5.864357,  1.862184 )
  WF centre   86  (  1.727972,  2.999851,  1.702592 )
  WF centre   87  (  1.734847,  2.998891,  1.710266 )
  WF centre   88  (  1.730116,  3.011791,  1.730421 )
  WF centre   89  (  1.727973,  3.162015,  1.711843 )
  WF centre   90  (  1.746934,  2.880129,  1.702304 )
  WF centre   91  ( -1.729684,  3.000751,  1.703246 )
  WF centre   92  ( -1.738525,  3.000161,  1.715069 )
  WF centre   93  ( -1.735042,  3.008304,  1.725739 )
  WF centre   94  ( -1.731624,  3.161895,  1.713628 )
  WF centre   95  ( -1.746376,  2.880983,  1.703130 )
  WF centre   96  ( -3.453299,  5.929406,  1.679022 )
  WF centre   97  (  3.414775, -5.984632,  1.741844 )
  WF centre   98  (  3.398443, -5.969407,  1.680089 )
  WF centre   99  (  3.458710, -5.841771,  1.761418 )
  WF centre  100  (  3.322243, -6.083935,  1.689401 )
  WF centre  101  (  1.737570,  1.010244, -0.071785 )
  WF centre  102  (  1.724237,  0.986024,  0.063012 )
  WF centre  103  (  1.726718,  0.996494,  0.059392 )
  WF centre  104  (  1.721891,  0.967834,  3.491218 )
  WF centre  105  (  1.723323,  0.978403,  3.337251 )
  WF centre  106  (  1.723843,  0.998521,  3.338070 )
  WF centre  107  (  5.170770,  0.984940, -0.131380 )
  WF centre  108  (  5.156098,  0.960204,  0.008052 )
  WF centre  109  (  5.168642,  0.969954,  0.004900 )
  WF centre  110  (  5.159182,  1.044728,  3.475940 )
  WF centre  111  (  5.158713,  1.046658,  3.315482 )
  WF centre  112  (  5.160450,  1.062714,  3.315857 )
  WF centre  113  ( -5.174509,  0.984263, -0.136735 )
  WF centre  114  ( -5.158878,  0.960225,  0.008567 )
  WF centre  115  ( -5.166149,  0.972242,  0.003663 )
  WF centre  116  ( -5.156842,  1.047398,  3.472096 )
  WF centre  117  ( -5.157594,  1.047243,  3.316051 )
  WF centre  118  ( -5.158672,  1.067163,  3.317782 )
  WF centre  119  ( -1.731749,  1.007445, -0.070622 )
  WF centre  120  ( -1.731985,  0.986420,  0.063139 )
  WF centre  121  ( -1.727958,  0.995718,  0.057408 )
  WF centre  122  ( -1.722800,  0.972799,  3.485263 )
  WF centre  123  ( -1.726067,  0.977845,  3.336039 )
  WF centre  124  ( -1.723485,  0.995030,  3.337362 )
  WF centre  125  ( -3.425022,  4.007138, -0.135627 )
  WF centre  126  ( -3.424143,  3.983692,  0.021146 )
  WF centre  127  ( -3.427241,  4.012188,  0.009960 )
  WF centre  128  ( -3.512999,  3.958682,  3.478635 )
  WF centre  129  ( -3.486100,  3.937466,  3.325923 )
  WF centre  130  ( -3.507417,  3.977812,  3.328376 )
  WF centre  131  (  1.750473, -4.976624, -0.113196 )
  WF centre  132  (  1.735661, -4.975501,  0.014398 )
  WF centre  133  (  1.744365, -4.941399,  0.033052 )
  WF centre  134  (  1.447586, -4.906803,  3.769513 )
  WF centre  135  (  2.216856, -4.787777,  3.684182 )
  WF centre  136  (  1.774534, -5.477603,  3.469548 )
  WF centre  137  (  0.002673, -2.001095, -0.048930 )
  WF centre  138  (  0.007578, -2.018155,  0.079400 )
  WF centre  139  ( -0.000780, -1.979925,  0.071558 )
  WF centre  140  (  0.021367, -2.181148,  3.507178 )
  WF centre  141  ( -0.062582, -1.982834,  3.383225 )
  WF centre  142  (  0.033526, -1.825214,  3.474229 )
  WF centre  143  ( -3.490416, -2.019396,  0.004606 )
  WF centre  144  ( -3.486548, -2.035324,  0.129581 )
  WF centre  145  ( -3.486902, -2.001029,  0.125127 )
  WF centre  146  ( -3.400553, -2.150494,  3.548176 )
  WF centre  147  ( -3.391411, -1.952625,  3.419290 )
  WF centre  148  ( -3.380073, -1.805950,  3.542438 )
  WF centre  149  ( -0.001012,  9.895706,  0.085415 )
  WF centre  150  (  0.000214,  9.889867,  0.184751 )
  WF centre  151  ( -0.000612,  9.912055,  0.188723 )
  WF centre  152  (  0.001502, 10.042601,  3.609681 )
  WF centre  153  (  0.009085, 10.213347,  3.531081 )
  WF centre  154  ( -0.013502, 10.304229,  3.610483 )
  WF centre  155  (  3.489224, -2.013637,  0.012506 )
  WF centre  156  (  3.480571, -2.031685,  0.129630 )
  WF centre  157  (  3.489242, -2.007859,  0.126344 )
  WF centre  158  (  3.404611, -2.128450,  3.537289 )
  WF centre  159  (  3.346325, -1.973445,  3.432440 )
  WF centre  160  (  3.413798, -1.833139,  3.525989 )
  WF centre  161  ( -0.004332, -7.940931, -0.192046 )
  WF centre  162  (  0.004827, -7.968947, -0.048236 )
  WF centre  163  ( -0.002270, -7.937172, -0.052770 )
  WF centre  164  ( -0.001172, -7.948600,  3.446167 )
  WF centre  165  (  0.003883, -7.959652,  3.310520 )
  WF centre  166  ( -0.001139, -7.909730,  3.307260 )
  WF centre  167  ( -1.735250, -4.979383, -0.101611 )
  WF centre  168  ( -1.742431, -4.974417,  0.015054 )
  WF centre  169  ( -1.739008, -4.944761,  0.033359 )
  WF centre  170  ( -1.889871, -4.911103,  3.544067 )
  WF centre  171  ( -1.408030, -4.900488,  3.548162 )
  WF centre  172  ( -1.657503, -5.181785,  3.429788 )
  WF centre  173  (  1.665484,  6.976017,  0.069551 )
  WF centre  174  (  1.683002,  6.968272,  0.189387 )
  WF centre  175  (  1.688556,  7.008107,  0.199293 )
  WF centre  176  (  2.147624,  6.918827,  3.748040 )
  WF centre  177  (  1.584228,  6.999495,  3.750116 )
  WF centre  178  (  1.896192,  6.553338,  3.665993 )
  WF centre  179  (  3.428044,  4.005966, -0.138367 )
  WF centre  180  (  3.420325,  3.979236,  0.015876 )
  WF centre  181  (  3.424025,  4.005691,  0.007635 )
  WF centre  182  (  3.505350,  3.948146,  3.471665 )
  WF centre  183  (  3.488706,  3.935831,  3.323999 )
  WF centre  184  (  3.505648,  3.993653,  3.331022 )
  WF centre  185  ( -0.000012,  4.050521, -0.003353 )
  WF centre  186  ( -0.000175,  4.019410,  0.134714 )
  WF centre  187  ( -0.001718,  4.044873,  0.116794 )
  WF centre  188  ( -0.000348,  3.944153,  3.558930 )
  WF centre  189  (  0.005511,  3.914964,  3.411057 )
  WF centre  190  ( -0.000667,  3.991079,  3.381716 )
  WF centre  191  ( -1.666264,  6.981823,  0.063817 )
  WF centre  192  ( -1.692274,  6.968901,  0.195418 )
  WF centre  193  ( -1.690780,  7.005049,  0.199829 )
  WF centre  194  ( -2.237888,  6.905378,  3.940981 )
  WF centre  195  ( -1.427052,  7.104852,  3.873305 )
  WF centre  196  ( -1.861284,  6.486837,  3.652565 )
 ------------------------------------------------------------------------------
 

 Wannier centres written to file infcr.down_centres.xyz
  
  Omega Invariant:   1-s^2 =   322.294097760 (Ang^2)
                   -2log s =   364.302849144 (Ang^2)
                    acos^2 =   348.674282101 (Ang^2)
 Time for wannierise           40.155 (sec)

 Writing checkpoint file infcr.down.chk... done

 *---------------------------------------------------------------------------*
 |                               PLOTTING                                    |
 *---------------------------------------------------------------------------*
 
    1 lattice points in Wigner-Seitz supercell:

      vector   0   0   0   degeneracy:  1
  tot =        1.000
  mp_grid product =            1
 
 Calculating interpolated band-structure
 
 Time to calculate interpolated band structure       6.207 (sec)
 
 Time for plotting              6.415 (sec)
 Total Execution Time         585.209 (sec)

 *===========================================================================*
 |                             TIMING INFORMATION                            |
 *===========================================================================*
 |    Tag                                                Ncalls      Time (s)|
 |---------------------------------------------------------------------------|
 |kmesh: get                                        :         1         0.008|
 |overlap: allocate                                 :         1         0.002|
 |overlap: read                                     :         1         4.115|
 |dis: main                                         :         1       534.489|
 |wann: main                                        :         1        40.154|
 |plot: main                                        :         1         6.415|
 *---------------------------------------------------------------------------*
 
 All done: wannier90 exiting
