 written on 20Jul2023 at 20:30:53 
         196
           1
    1
    0    0    0    1    1   -3.130333    0.000000
    0    0    0    2    1   -0.128751    0.000000
    0    0    0    3    1   -0.093034    0.000000
    0    0    0    4    1   -0.031789   -0.000000
    0    0    0    5    1   -0.150505   -0.000000
    0    0    0    6    1    0.018756    0.000000
    0    0    0    7    1    0.003061   -0.000000
    0    0    0    8    1    0.074674   -0.000000
    0    0    0    9    1   -0.019438   -0.000000
    0    0    0   10    1   -0.123689   -0.000000
    0    0    0   11    1    0.002883   -0.000000
    0    0    0   12    1    0.013822    0.000000
    0    0    0   13    1    0.001373    0.000000
    0    0    0   14    1   -0.018180    0.000000
    0    0    0   15    1    0.002852   -0.000000
    0    0    0   16    1    0.137545   -0.000000
    0    0    0   17    1    0.146982   -0.000000
    0    0    0   18    1    0.108395    0.000000
    0    0    0   19    1   -0.509370   -0.000000
    0    0    0   20    1    0.225252    0.000000
    0    0    0   21    1    0.001864    0.000000
    0    0    0   22    1    0.026430   -0.000000
    0    0    0   23    1    0.022511    0.000000
    0    0    0   24    1   -0.014510   -0.000000
    0    0    0   25    1   -0.003004    0.000000
    0    0    0   26    1    0.000411    0.000000
    0    0    0   27    1   -0.006962    0.000000
    0    0    0   28    1    0.006959    0.000000
    0    0    0   29    1   -0.012708    0.000000
    0    0    0   30    1   -0.025972   -0.000000
    0    0    0   31    1    0.017390   -0.000000
    0    0    0   32    1   -0.023909    0.000000
    0    0    0   33    1    0.039525    0.000000
    0    0    0   34    1    0.011572    0.000000
    0    0    0   35    1    0.003649    0.000000
    0    0    0   36    1   -0.008267    0.000000
    0    0    0   37    1    0.012002   -0.000000
    0    0    0   38    1    0.020323   -0.000000
    0    0    0   39    1   -0.015302   -0.000000
    0    0    0   40    1    0.028969   -0.000000
    0    0    0   41    1   -0.006810    0.000000
    0    0    0   42    1    0.013055   -0.000000
    0    0    0   43    1    0.004627   -0.000000
    0    0    0   44    1   -0.018391    0.000000
    0    0    0   45    1    0.012842   -0.000000
    0    0    0   46    1   -0.025173    0.000000
    0    0    0   47    1    0.013909   -0.000000
    0    0    0   48    1   -0.004911    0.000000
    0    0    0   49    1    0.008084   -0.000000
    0    0    0   50    1   -0.016143   -0.000000
    0    0    0   51    1   -0.003420   -0.000000
    0    0    0   52    1    0.000993    0.000000
    0    0    0   53    1    0.003600   -0.000000
    0    0    0   54    1    0.016621    0.000000
    0    0    0   55    1    0.019391   -0.000000
    0    0    0   56    1    0.334808   -0.000000
    0    0    0   57    1    0.170825    0.000000
    0    0    0   58    1    0.112215    0.000000
    0    0    0   59    1   -0.007622   -0.000000
    0    0    0   60    1   -0.630242    0.000000
    0    0    0   61    1    0.168305    0.000000
    0    0    0   62    1   -0.115814    0.000000
    0    0    0   63    1    0.260525   -0.000000
    0    0    0   64    1   -0.055093    0.000000
    0    0    0   65    1    0.787363   -0.000000
    0    0    0   66    1   -0.016285    0.000000
    0    0    0   67    1   -0.002665   -0.000000
    0    0    0   68    1   -0.003401   -0.000000
    0    0    0   69    1   -0.002939    0.000000
    0    0    0   70    1   -0.041440   -0.000000
    0    0    0   71    1   -0.006720   -0.000000
    0    0    0   72    1   -0.011464   -0.000000
    0    0    0   73    1    0.006785    0.000000
    0    0    0   74    1   -0.010293   -0.000000
    0    0    0   75    1   -0.018886   -0.000000
    0    0    0   76    1    0.037317   -0.000000
    0    0    0   77    1    0.002834   -0.000000
    0    0    0   78    1   -0.027903   -0.000000
    0    0    0   79    1    0.008969    0.000000
    0    0    0   80    1   -0.004546    0.000000
    0    0    0   81    1    0.276951    0.000000
    0    0    0   82    1    0.128324    0.000000
    0    0    0   83    1   -0.501322   -0.000000
    0    0    0   84    1    0.540258    0.000000
    0    0    0   85    1    0.074135    0.000000
    0    0    0   86    1   -0.004833    0.000000
    0    0    0   87    1   -0.013526    0.000000
    0    0    0   88    1    0.006347   -0.000000
    0    0    0   89    1   -0.011647    0.000000
    0    0    0   90    1   -0.019003   -0.000000
    0    0    0   91    1   -0.005940   -0.000000
    0    0    0   92    1    0.015200    0.000000
    0    0    0   93    1    0.014479   -0.000000
    0    0    0   94    1   -0.044878    0.000000
    0    0    0   95    1    0.014633    0.000000
    0    0    0   96    1    0.086449    0.000000
    0    0    0   97    1   -0.076487   -0.000000
    0    0    0   98    1    0.054645    0.000000
    0    0    0   99    1    0.003410   -0.000000
    0    0    0  100    1    0.094224    0.000000
    0    0    0  101    1   -0.004299   -0.000000
    0    0    0  102    1   -0.013336    0.000000
    0    0    0  103    1   -0.013746    0.000000
    0    0    0  104    1    0.013417    0.000000
    0    0    0  105    1    0.007833   -0.000000
    0    0    0  106    1    0.000803    0.000000
    0    0    0  107    1    0.013827   -0.000000
    0    0    0  108    1    0.012529   -0.000000
    0    0    0  109    1   -0.005235    0.000000
    0    0    0  110    1   -0.000525    0.000000
    0    0    0  111    1    0.010456    0.000000
    0    0    0  112    1   -0.010163    0.000000
    0    0    0  113    1    0.008148    0.000000
    0    0    0  114    1   -0.004784   -0.000000
    0    0    0  115    1   -0.001222   -0.000000
    0    0    0  116    1   -0.013202    0.000000
    0    0    0  117    1   -0.021007    0.000000
    0    0    0  118    1   -0.017318   -0.000000
    0    0    0  119    1   -0.007941    0.000000
    0    0    0  120    1   -0.006061   -0.000000
    0    0    0  121    1   -0.009203    0.000000
    0    0    0  122    1    0.002221    0.000000
    0    0    0  123    1    0.014772   -0.000000
    0    0    0  124    1   -0.002737   -0.000000
    0    0    0  125    1    0.060385   -0.000000
    0    0    0  126    1   -0.021432    0.000000
    0    0    0  127    1    0.083132   -0.000000
    0    0    0  128    1   -0.009319   -0.000000
    0    0    0  129    1    0.050687    0.000000
    0    0    0  130    1    0.099828    0.000000
    0    0    0  131    1    0.055678   -0.000000
    0    0    0  132    1    0.069245    0.000000
    0    0    0  133    1   -0.058126    0.000000
    0    0    0  134    1   -0.071697    0.000000
    0    0    0  135    1   -0.000765    0.000000
    0    0    0  136    1   -0.081062   -0.000000
    0    0    0  137    1   -0.030016   -0.000000
    0    0    0  138    1   -0.005887   -0.000000
    0    0    0  139    1   -0.003627   -0.000000
    0    0    0  140    1    0.038808    0.000000
    0    0    0  141    1    0.010955    0.000000
    0    0    0  142    1    0.008196   -0.000000
    0    0    0  143    1    0.060335    0.000000
    0    0    0  144    1    0.010207   -0.000000
    0    0    0  145    1   -0.001377    0.000000
    0    0    0  146    1   -0.070678   -0.000000
    0    0    0  147    1    0.044676    0.000000
    0    0    0  148    1   -0.012758   -0.000000
    0    0    0  149    1   -0.130610    0.000000
    0    0    0  150    1    0.004295   -0.000000
    0    0    0  151    1    0.141774   -0.000000
    0    0    0  152    1    0.334992   -0.000000
    0    0    0  153    1    0.113934   -0.000000
    0    0    0  154    1   -0.522567   -0.000000
    0    0    0  155    1    0.029494   -0.000000
    0    0    0  156    1   -0.032320    0.000000
    0    0    0  157    1    0.013419   -0.000000
    0    0    0  158    1    0.036429    0.000000
    0    0    0  159    1   -0.052068    0.000000
    0    0    0  160    1    0.095680   -0.000000
    0    0    0  161    1    0.001356   -0.000000
    0    0    0  162    1   -0.005709    0.000000
    0    0    0  163    1    0.010707   -0.000000
    0    0    0  164    1    0.000521   -0.000000
    0    0    0  165    1   -0.006205    0.000000
    0    0    0  166    1   -0.009535    0.000000
    0    0    0  167    1   -0.000868   -0.000000
    0    0    0  168    1    0.000761    0.000000
    0    0    0  169    1   -0.010260    0.000000
    0    0    0  170    1    0.032754    0.000000
    0    0    0  171    1    0.021465    0.000000
    0    0    0  172    1    0.020666   -0.000000
    0    0    0  173    1   -0.120810    0.000000
    0    0    0  174    1    0.111618   -0.000000
    0    0    0  175    1   -0.044650    0.000000
    0    0    0  176    1    0.408358   -0.000000
    0    0    0  177    1   -0.719378    0.000000
    0    0    0  178    1   -0.308675   -0.000000
    0    0    0  179    1    0.021829    0.000000
    0    0    0  180    1    0.013501    0.000000
    0    0    0  181    1    0.009186    0.000000
    0    0    0  182    1   -0.003831    0.000000
    0    0    0  183    1   -0.019136    0.000000
    0    0    0  184    1    0.017338   -0.000000
    0    0    0  185    1    0.054655    0.000000
    0    0    0  186    1    0.001839   -0.000000
    0    0    0  187    1   -0.032718   -0.000000
    0    0    0  188    1    0.002711   -0.000000
    0    0    0  189    1    0.015991   -0.000000
    0    0    0  190    1   -0.065067   -0.000000
    0    0    0  191    1   -0.111204   -0.000000
    0    0    0  192    1   -0.092429    0.000000
    0    0    0  193    1   -0.053721    0.000000
    0    0    0  194    1    0.088441    0.000000
    0    0    0  195    1   -1.055899    0.000000
    0    0    0  196    1   -0.107331    0.000000
    0    0    0    1    2   -0.128751   -0.000000
    0    0    0    2    2   -3.674601    0.000000
    0    0    0    3    2    0.057537   -0.000000
    0    0    0    4    2    0.109789    0.000000
    0    0    0    5    2    0.180025    0.000000
    0    0    0    6    2   -0.105545    0.000000
    0    0    0    7    2    0.049111   -0.000000
    0    0    0    8    2   -0.137659   -0.000000
    0    0    0    9    2   -0.086408    0.000000
    0    0    0   10    2    0.215310    0.000000
    0    0    0   11    2   -0.008560   -0.000000
    0    0    0   12    2   -0.004553   -0.000000
    0    0    0   13    2   -0.020478   -0.000000
    0    0    0   14    2   -0.008810    0.000000
    0    0    0   15    2   -0.011347   -0.000000
    0    0    0   16    2    0.065597   -0.000000
    0    0    0   17    2    0.035337   -0.000000
    0    0    0   18    2    0.274203   -0.000000
    0    0    0   19    2    0.186755    0.000000
    0    0    0   20    2   -0.082911   -0.000000
    0    0    0   21    2   -0.000956    0.000000
    0    0    0   22    2    0.003128   -0.000000
    0    0    0   23    2   -0.003915   -0.000000
    0    0    0   24    2    0.004166    0.000000
    0    0    0   25    2   -0.009125   -0.000000
    0    0    0   26    2   -0.008809    0.000000
    0    0    0   27    2   -0.008574    0.000000
    0    0    0   28    2    0.011119   -0.000000
    0    0    0   29    2    0.001418    0.000000
    0    0    0   30    2    0.022395   -0.000000
    0    0    0   31    2    0.012033    0.000000
    0    0    0   32    2    0.020479    0.000000
    0    0    0   33    2   -0.007071   -0.000000
    0    0    0   34    2   -0.006545   -0.000000
    0    0    0   35    2   -0.040895    0.000000
    0    0    0   36    2    0.006295   -0.000000
    0    0    0   37    2   -0.008237   -0.000000
    0    0    0   38    2   -0.007706   -0.000000
    0    0    0   39    2    0.004870    0.000000
    0    0    0   40    2    0.017739    0.000000
    0    0    0   41    2    0.007162    0.000000
    0    0    0   42    2   -0.023042    0.000000
    0    0    0   43    2   -0.002927   -0.000000
    0    0    0   44    2    0.004467    0.000000
    0    0    0   45    2    0.001735   -0.000000
    0    0    0   46    2    0.013540    0.000000
    0    0    0   47    2   -0.071372   -0.000000
    0    0    0   48    2    0.000454   -0.000000
    0    0    0   49    2   -0.012159   -0.000000
    0    0    0   50    2   -0.014911    0.000000
    0    0    0   51    2   -0.008817    0.000000
    0    0    0   52    2    0.007548   -0.000000
    0    0    0   53    2   -0.008695    0.000000
    0    0    0   54    2    0.001995    0.000000
    0    0    0   55    2    0.009896    0.000000
    0    0    0   56    2    0.106362   -0.000000
    0    0    0   57    2   -0.276032   -0.000000
    0    0    0   58    2   -0.250678   -0.000000
    0    0    0   59    2   -0.054600    0.000000
    0    0    0   60    2    0.499781    0.000000
    0    0    0   61    2   -0.140147    0.000000
    0    0    0   62    2   -0.293621    0.000000
    0    0    0   63    2    0.175250   -0.000000
    0    0    0   64    2    0.021297    0.000000
    0    0    0   65    2    0.462229   -0.000000
    0    0    0   66    2    0.012834    0.000000
    0    0    0   67    2    0.004945   -0.000000
    0    0    0   68    2    0.015831    0.000000
    0    0    0   69    2   -0.003279    0.000000
    0    0    0   70    2    0.012785    0.000000
    0    0    0   71    2   -0.005593    0.000000
    0    0    0   72    2   -0.009874   -0.000000
    0    0    0   73    2   -0.007035    0.000000
    0    0    0   74    2    0.002826    0.000000
    0    0    0   75    2    0.014510    0.000000
    0    0    0   76    2    0.041295   -0.000000
    0    0    0   77    2    0.053179   -0.000000
    0    0    0   78    2   -0.026311    0.000000
    0    0    0   79    2   -0.015978    0.000000
    0    0    0   80    2    0.028283   -0.000000
    0    0    0   81    2    0.029805   -0.000000
    0    0    0   82    2    0.118814   -0.000000
    0    0    0   83    2    0.116141   -0.000000
    0    0    0   84    2   -0.033596   -0.000000
    0    0    0   85    2    0.218055   -0.000000
    0    0    0   86    2   -0.019740   -0.000000
    0    0    0   87    2    0.011379   -0.000000
    0    0    0   88    2   -0.008200    0.000000
    0    0    0   89    2   -0.001205   -0.000000
    0    0    0   90    2   -0.015678    0.000000
    0    0    0   91    2    0.022438    0.000000
    0    0    0   92    2    0.000673    0.000000
    0    0    0   93    2   -0.007355    0.000000
    0    0    0   94    2   -0.007219    0.000000
    0    0    0   95    2   -0.022901   -0.000000
    0    0    0   96    2   -0.050071    0.000000
    0    0    0   97    2    0.076859    0.000000
    0    0    0   98    2    0.062031    0.000000
    0    0    0   99    2    0.014466    0.000000
    0    0    0  100    2    0.034957    0.000000
    0    0    0  101    2    0.003178   -0.000000
    0    0    0  102    2    0.011066   -0.000000
    0    0    0  103    2    0.001066   -0.000000
    0    0    0  104    2    0.003698   -0.000000
    0    0    0  105    2    0.003633    0.000000
    0    0    0  106    2    0.000398   -0.000000
    0    0    0  107    2   -0.005120   -0.000000
    0    0    0  108    2   -0.010132   -0.000000
    0    0    0  109    2    0.000853   -0.000000
    0    0    0  110    2    0.012591   -0.000000
    0    0    0  111    2    0.001670   -0.000000
    0    0    0  112    2    0.003293   -0.000000
    0    0    0  113    2    0.006957   -0.000000
    0    0    0  114    2   -0.001268    0.000000
    0    0    0  115    2   -0.000000   -0.000000
    0    0    0  116    2   -0.011998   -0.000000
    0    0    0  117    2   -0.001590   -0.000000
    0    0    0  118    2   -0.005842   -0.000000
    0    0    0  119    2   -0.003972   -0.000000
    0    0    0  120    2    0.002881    0.000000
    0    0    0  121    2    0.003038   -0.000000
    0    0    0  122    2    0.001157   -0.000000
    0    0    0  123    2   -0.002327   -0.000000
    0    0    0  124    2   -0.003183    0.000000
    0    0    0  125    2   -0.018863   -0.000000
    0    0    0  126    2    0.011967    0.000000
    0    0    0  127    2   -0.011655   -0.000000
    0    0    0  128    2   -0.037265   -0.000000
    0    0    0  129    2   -0.019343    0.000000
    0    0    0  130    2   -0.048039    0.000000
    0    0    0  131    2   -0.017651   -0.000000
    0    0    0  132    2    0.006709   -0.000000
    0    0    0  133    2    0.017286    0.000000
    0    0    0  134    2   -0.019075    0.000000
    0    0    0  135    2   -0.092630   -0.000000
    0    0    0  136    2    0.016988    0.000000
    0    0    0  137    2    0.003647   -0.000000
    0    0    0  138    2   -0.002481    0.000000
    0    0    0  139    2    0.000142    0.000000
    0    0    0  140    2    0.001675    0.000000
    0    0    0  141    2   -0.005156   -0.000000
    0    0    0  142    2   -0.001876    0.000000
    0    0    0  143    2   -0.021364   -0.000000
    0    0    0  144    2    0.032668    0.000000
    0    0    0  145    2   -0.001804    0.000000
    0    0    0  146    2   -0.044589    0.000000
    0    0    0  147    2   -0.001724   -0.000000
    0    0    0  148    2   -0.049499    0.000000
    0    0    0  149    2   -0.010831    0.000000
    0    0    0  150    2    0.110265    0.000000
    0    0    0  151    2   -0.010071   -0.000000
    0    0    0  152    2   -0.033368   -0.000000
    0    0    0  153    2    0.000947    0.000000
    0    0    0  154    2   -0.086746    0.000000
    0    0    0  155    2    0.018970   -0.000000
    0    0    0  156    2    0.039982   -0.000000
    0    0    0  157    2   -0.006556    0.000000
    0    0    0  158    2    0.021036    0.000000
    0    0    0  159    2    0.030781   -0.000000
    0    0    0  160    2    0.034581    0.000000
    0    0    0  161    2   -0.005298   -0.000000
    0    0    0  162    2   -0.014239    0.000000
    0    0    0  163    2   -0.008907   -0.000000
    0    0    0  164    2    0.002701    0.000000
    0    0    0  165    2   -0.009176    0.000000
    0    0    0  166    2    0.000263   -0.000000
    0    0    0  167    2   -0.001435   -0.000000
    0    0    0  168    2    0.021619    0.000000
    0    0    0  169    2   -0.002668    0.000000
    0    0    0  170    2    0.016010   -0.000000
    0    0    0  171    2   -0.112276   -0.000000
    0    0    0  172    2    0.014266    0.000000
    0    0    0  173    2    0.007337    0.000000
    0    0    0  174    2   -0.041351    0.000000
    0    0    0  175    2    0.061576    0.000000
    0    0    0  176    2   -0.704967   -0.000000
    0    0    0  177    2   -0.623352   -0.000000
    0    0    0  178    2    0.278678    0.000000
    0    0    0  179    2   -0.003418   -0.000000
    0    0    0  180    2    0.002662   -0.000000
    0    0    0  181    2   -0.014921    0.000000
    0    0    0  182    2    0.029758   -0.000000
    0    0    0  183    2    0.002793   -0.000000
    0    0    0  184    2    0.015905    0.000000
    0    0    0  185    2   -0.000271   -0.000000
    0    0    0  186    2    0.028788    0.000000
    0    0    0  187    2    0.011553    0.000000
    0    0    0  188    2   -0.005893    0.000000
    0    0    0  189    2   -0.011561   -0.000000
    0    0    0  190    2    0.037801    0.000000
    0    0    0  191    2    0.027386    0.000000
    0    0    0  192    2   -0.014521   -0.000000
    0    0    0  193    2   -0.058050    0.000000
    0    0    0  194    2    0.736190    0.000000
    0    0    0  195    2    0.258004   -0.000000
    0    0    0  196    2   -0.624564    0.000000
    0    0    0    1    3   -0.093034   -0.000000
    0    0    0    2    3    0.057537    0.000000
    0    0    0    3    3   -3.737446    0.000000
    0    0    0    4    3    0.171679    0.000000
    0    0    0    5    3    0.050256    0.000000
    0    0    0    6    3    0.033951   -0.000000
    0    0    0    7    3    0.097134   -0.000000
    0    0    0    8    3   -0.039531   -0.000000
    0    0    0    9    3    0.026273    0.000000
    0    0    0   10    3    0.046406   -0.000000
    0    0    0   11    3    0.007588    0.000000
    0    0    0   12    3    0.014776    0.000000
    0    0    0   13    3   -0.002044    0.000000
    0    0    0   14    3   -0.015742   -0.000000
    0    0    0   15    3   -0.005213   -0.000000
    0    0    0   16    3    0.018248    0.000000
    0    0    0   17    3   -0.125680   -0.000000
    0    0    0   18    3    0.071363    0.000000
    0    0    0   19    3    0.053976   -0.000000
    0    0    0   20    3   -0.093888   -0.000000
    0    0    0   21    3    0.004240   -0.000000
    0    0    0   22    3   -0.008318   -0.000000
    0    0    0   23    3    0.002468   -0.000000
    0    0    0   24    3   -0.016907    0.000000
    0    0    0   25    3    0.002324   -0.000000
    0    0    0   26    3   -0.019207    0.000000
    0    0    0   27    3    0.006514   -0.000000
    0    0    0   28    3    0.046616   -0.000000
    0    0    0   29    3    0.003570    0.000000
    0    0    0   30    3   -0.010276    0.000000
    0    0    0   31    3    0.037687   -0.000000
    0    0    0   32    3    0.009217    0.000000
    0    0    0   33    3    0.095602   -0.000000
    0    0    0   34    3    0.056400   -0.000000
    0    0    0   35    3   -0.003938    0.000000
    0    0    0   36    3   -0.011274   -0.000000
    0    0    0   37    3   -0.009359   -0.000000
    0    0    0   38    3    0.040443   -0.000000
    0    0    0   39    3   -0.000298    0.000000
    0    0    0   40    3    0.011836    0.000000
    0    0    0   41    3    0.002417    0.000000
    0    0    0   42    3    0.000662    0.000000
    0    0    0   43    3   -0.008526    0.000000
    0    0    0   44    3    0.001760   -0.000000
    0    0    0   45    3   -0.000187   -0.000000
    0    0    0   46    3   -0.005249    0.000000
    0    0    0   47    3   -0.010829   -0.000000
    0    0    0   48    3   -0.045382   -0.000000
    0    0    0   49    3   -0.024645   -0.000000
    0    0    0   50    3   -0.000911    0.000000
    0    0    0   51    3    0.023659    0.000000
    0    0    0   52    3   -0.000105   -0.000000
    0    0    0   53    3   -0.005411   -0.000000
    0    0    0   54    3    0.005466   -0.000000
    0    0    0   55    3    0.050432    0.000000
    0    0    0   56    3   -0.020549    0.000000
    0    0    0   57    3   -0.213463   -0.000000
    0    0    0   58    3   -0.074245   -0.000000
    0    0    0   59    3    0.221170    0.000000
    0    0    0   60    3    0.154481    0.000000
    0    0    0   61    3    0.057386   -0.000000
    0    0    0   62    3    0.231443   -0.000000
    0    0    0   63    3   -0.179266    0.000000
    0    0    0   64    3    0.244218   -0.000000
    0    0    0   65    3   -0.160185    0.000000
    0    0    0   66    3    0.018644   -0.000000
    0    0    0   67    3   -0.001961    0.000000
    0    0    0   68    3   -0.002795    0.000000
    0    0    0   69    3    0.020206   -0.000000
    0    0    0   70    3   -0.039540   -0.000000
    0    0    0   71    3   -0.003011    0.000000
    0    0    0   72    3   -0.001543    0.000000
    0    0    0   73    3   -0.006928   -0.000000
    0    0    0   74    3   -0.001749    0.000000
    0    0    0   75    3    0.004664    0.000000
    0    0    0   76    3   -0.023116    0.000000
    0    0    0   77    3   -0.006377    0.000000
    0    0    0   78    3    0.053554   -0.000000
    0    0    0   79    3   -0.025497   -0.000000
    0    0    0   80    3   -0.062679   -0.000000
    0    0    0   81    3   -0.064151    0.000000
    0    0    0   82    3   -0.005457    0.000000
    0    0    0   83    3   -0.713771    0.000000
    0    0    0   84    3    0.183964    0.000000
    0    0    0   85    3   -0.001407    0.000000
    0    0    0   86    3   -0.007643   -0.000000
    0    0    0   87    3   -0.011163   -0.000000
    0    0    0   88    3    0.001912    0.000000
    0    0    0   89    3    0.013109    0.000000
    0    0    0   90    3   -0.009442   -0.000000
    0    0    0   91    3   -0.007700   -0.000000
    0    0    0   92    3    0.009243   -0.000000
    0    0    0   93    3   -0.004798   -0.000000
    0    0    0   94    3    0.019393    0.000000
    0    0    0   95    3    0.009329    0.000000
    0    0    0   96    3   -0.033224   -0.000000
    0    0    0   97    3    0.020880    0.000000
    0    0    0   98    3    0.046596    0.000000
    0    0    0   99    3   -0.045879    0.000000
    0    0    0  100    3    0.045778   -0.000000
    0    0    0  101    3    0.003518   -0.000000
    0    0    0  102    3    0.004996    0.000000
    0    0    0  103    3    0.003876   -0.000000
    0    0    0  104    3   -0.000382   -0.000000
    0    0    0  105    3    0.001975    0.000000
    0    0    0  106    3   -0.010385   -0.000000
    0    0    0  107    3    0.009847   -0.000000
    0    0    0  108    3   -0.013364   -0.000000
    0    0    0  109    3    0.014965   -0.000000
    0    0    0  110    3    0.027257   -0.000000
    0    0    0  111    3    0.013090   -0.000000
    0    0    0  112    3   -0.008135   -0.000000
    0    0    0  113    3    0.012603   -0.000000
    0    0    0  114    3    0.011045    0.000000
    0    0    0  115    3    0.011999    0.000000
    0    0    0  116    3    0.032092   -0.000000
    0    0    0  117    3   -0.010406    0.000000
    0    0    0  118    3   -0.018386   -0.000000
    0    0    0  119    3    0.006317   -0.000000
    0    0    0  120    3    0.003783    0.000000
    0    0    0  121    3    0.004291   -0.000000
    0    0    0  122    3    0.001459   -0.000000
    0    0    0  123    3   -0.004558   -0.000000
    0    0    0  124    3   -0.008165   -0.000000
    0    0    0  125    3   -0.020655    0.000000
    0    0    0  126    3    0.010003    0.000000
    0    0    0  127    3   -0.018873   -0.000000
    0    0    0  128    3   -0.010935   -0.000000
    0    0    0  129    3   -0.003687   -0.000000
    0    0    0  130    3   -0.027639    0.000000
    0    0    0  131    3    0.003184   -0.000000
    0    0    0  132    3   -0.004438   -0.000000
    0    0    0  133    3   -0.000377    0.000000
    0    0    0  134    3   -0.038849   -0.000000
    0    0    0  135    3   -0.064147   -0.000000
    0    0    0  136    3    0.030945    0.000000
    0    0    0  137    3   -0.012620   -0.000000
    0    0    0  138    3    0.003741    0.000000
    0    0    0  139    3    0.006177    0.000000
    0    0    0  140    3   -0.015152   -0.000000
    0    0    0  141    3    0.002014    0.000000
    0    0    0  142    3    0.023038    0.000000
    0    0    0  143    3   -0.007186   -0.000000
    0    0    0  144    3    0.002334    0.000000
    0    0    0  145    3    0.021447   -0.000000
    0    0    0  146    3   -0.088099    0.000000
    0    0    0  147    3    0.027464   -0.000000
    0    0    0  148    3   -0.016724    0.000000
    0    0    0  149    3   -0.031716    0.000000
    0    0    0  150    3    0.008389    0.000000
    0    0    0  151    3   -0.056943    0.000000
    0    0    0  152    3   -1.101421   -0.000000
    0    0    0  153    3   -0.016071   -0.000000
    0    0    0  154    3   -0.343682   -0.000000
    0    0    0  155    3    0.007361    0.000000
    0    0    0  156    3    0.002159    0.000000
    0    0    0  157    3    0.022123    0.000000
    0    0    0  158    3   -0.132347   -0.000000
    0    0    0  159    3    0.008733   -0.000000
    0    0    0  160    3   -0.052118    0.000000
    0    0    0  161    3    0.005354    0.000000
    0    0    0  162    3    0.000485   -0.000000
    0    0    0  163    3    0.008724    0.000000
    0    0    0  164    3    0.014071    0.000000
    0    0    0  165    3    0.000582    0.000000
    0    0    0  166    3   -0.011234    0.000000
    0    0    0  167    3    0.014762    0.000000
    0    0    0  168    3   -0.005986   -0.000000
    0    0    0  169    3   -0.012404   -0.000000
    0    0    0  170    3   -0.006833    0.000000
    0    0    0  171    3    0.051194   -0.000000
    0    0    0  172    3    0.007188    0.000000
    0    0    0  173    3    0.001920   -0.000000
    0    0    0  174    3    0.061048   -0.000000
    0    0    0  175    3    0.044022    0.000000
    0    0    0  176    3    0.295500    0.000000
    0    0    0  177    3    0.365880    0.000000
    0    0    0  178    3   -0.181675    0.000000
    0    0    0  179    3   -0.008759   -0.000000
    0    0    0  180    3   -0.001717    0.000000
    0    0    0  181    3   -0.001499    0.000000
    0    0    0  182    3   -0.011427   -0.000000
    0    0    0  183    3    0.005559    0.000000
    0    0    0  184    3   -0.012679   -0.000000
    0    0    0  185    3    0.020928    0.000000
    0    0    0  186    3    0.001249    0.000000
    0    0    0  187    3    0.056757   -0.000000
    0    0    0  188    3    0.118192   -0.000000
    0    0    0  189    3   -0.010690   -0.000000
    0    0    0  190    3   -0.043509   -0.000000
    0    0    0  191    3    0.023883    0.000000
    0    0    0  192    3   -0.064503   -0.000000
    0    0    0  193    3    0.049915   -0.000000
    0    0    0  194    3    0.406506    0.000000
    0    0    0  195    3    0.290990    0.000000
    0    0    0  196    3   -0.276845   -0.000000
    0    0    0    1    4   -0.031789    0.000000
    0    0    0    2    4    0.109789   -0.000000
    0    0    0    3    4    0.171679   -0.000000
    0    0    0    4    4   -3.111386    0.000000
    0    0    0    5    4    0.081870    0.000000
    0    0    0    6    4   -0.065509    0.000000
    0    0    0    7    4    0.170928    0.000000
    0    0    0    8    4    0.020665   -0.000000
    0    0    0    9    4    0.058694   -0.000000
    0    0    0   10    4    0.477395    0.000000
    0    0    0   11    4   -0.007784    0.000000
    0    0    0   12    4    0.011559    0.000000
    0    0    0   13    4    0.016652   -0.000000
    0    0    0   14    4    0.004295   -0.000000
    0    0    0   15    4    0.014980    0.000000
    0    0    0   16    4   -0.152432    0.000000
    0    0    0   17    4   -0.070522    0.000000
    0    0    0   18    4   -0.052068   -0.000000
    0    0    0   19    4    0.272431    0.000000
    0    0    0   20    4   -0.323968    0.000000
    0    0    0   21    4   -0.004212    0.000000
    0    0    0   22    4    0.003508    0.000000
    0    0    0   23    4    0.007159   -0.000000
    0    0    0   24    4    0.031758   -0.000000
    0    0    0   25    4   -0.003913   -0.000000
    0    0    0   26    4    0.016598   -0.000000
    0    0    0   27    4   -0.017239   -0.000000
    0    0    0   28    4   -0.037255   -0.000000
    0    0    0   29    4    0.005950   -0.000000
    0    0    0   30    4    0.015217   -0.000000
    0    0    0   31    4    0.068182    0.000000
    0    0    0   32    4    0.015405   -0.000000
    0    0    0   33    4   -0.004971   -0.000000
    0    0    0   34    4    0.026744    0.000000
    0    0    0   35    4   -0.017738    0.000000
    0    0    0   36    4    0.018269   -0.000000
    0    0    0   37    4    0.013822   -0.000000
    0    0    0   38    4   -0.036436   -0.000000
    0    0    0   39    4   -0.006882    0.000000
    0    0    0   40    4   -0.018963   -0.000000
    0    0    0   41    4   -0.006180   -0.000000
    0    0    0   42    4   -0.017803   -0.000000
    0    0    0   43    4   -0.020841    0.000000
    0    0    0   44    4    0.005371    0.000000
    0    0    0   45    4   -0.003470    0.000000
    0    0    0   46    4    0.038529   -0.000000
    0    0    0   47    4   -0.022764   -0.000000
    0    0    0   48    4    0.063642   -0.000000
    0    0    0   49    4    0.016271    0.000000
    0    0    0   50    4    0.021053    0.000000
    0    0    0   51    4   -0.031338   -0.000000
    0    0    0   52    4   -0.002042   -0.000000
    0    0    0   53    4    0.003323    0.000000
    0    0    0   54    4    0.013894    0.000000
    0    0    0   55    4   -0.024878    0.000000
    0    0    0   56    4   -0.354454    0.000000
    0    0    0   57    4    0.415130    0.000000
    0    0    0   58    4    0.131926    0.000000
    0    0    0   59    4   -0.087264   -0.000000
    0    0    0   60    4   -0.247808   -0.000000
    0    0    0   61    4    0.015651   -0.000000
    0    0    0   62    4   -0.145489    0.000000
    0    0    0   63    4   -0.055952    0.000000
    0    0    0   64    4   -0.066900   -0.000000
    0    0    0   65    4   -0.038668   -0.000000
    0    0    0   66    4   -0.023475   -0.000000
    0    0    0   67    4    0.009329    0.000000
    0    0    0   68    4   -0.004333    0.000000
    0    0    0   69    4    0.005482   -0.000000
    0    0    0   70    4    0.046157   -0.000000
    0    0    0   71    4   -0.011513    0.000000
    0    0    0   72    4    0.031208   -0.000000
    0    0    0   73    4   -0.012944    0.000000
    0    0    0   74    4   -0.004919    0.000000
    0    0    0   75    4    0.008282    0.000000
    0    0    0   76    4   -0.003707    0.000000
    0    0    0   77    4   -0.060840   -0.000000
    0    0    0   78    4    0.093275    0.000000
    0    0    0   79    4   -0.025063    0.000000
    0    0    0   80    4   -0.059435    0.000000
    0    0    0   81    4    0.447097   -0.000000
    0    0    0   82    4   -0.077069   -0.000000
    0    0    0   83    4    0.706945   -0.000000
    0    0    0   84    4    0.094577   -0.000000
    0    0    0   85    4   -0.058876   -0.000000
    0    0    0   86    4   -0.002022    0.000000
    0    0    0   87    4    0.012466   -0.000000
    0    0    0   88    4   -0.018631   -0.000000
    0    0    0   89    4   -0.007608   -0.000000
    0    0    0   90    4    0.023233    0.000000
    0    0    0   91    4   -0.013612    0.000000
    0    0    0   92    4   -0.017678    0.000000
    0    0    0   93    4   -0.004586    0.000000
    0    0    0   94    4    0.010537   -0.000000
    0    0    0   95    4   -0.026298   -0.000000
    0    0    0   96    4   -0.101334   -0.000000
    0    0    0   97    4   -0.103794    0.000000
    0    0    0   98    4   -0.155940    0.000000
    0    0    0   99    4   -0.046675   -0.000000
    0    0    0  100    4   -0.048037    0.000000
    0    0    0  101    4   -0.002397    0.000000
    0    0    0  102    4   -0.003240   -0.000000
    0    0    0  103    4    0.000689   -0.000000
    0    0    0  104    4    0.006789    0.000000
    0    0    0  105    4   -0.003598   -0.000000
    0    0    0  106    4    0.030063    0.000000
    0    0    0  107    4    0.005758    0.000000
    0    0    0  108    4    0.004014   -0.000000
    0    0    0  109    4    0.002607    0.000000
    0    0    0  110    4   -0.024608    0.000000
    0    0    0  111    4    0.022279   -0.000000
    0    0    0  112    4   -0.003512    0.000000
    0    0    0  113    4    0.013254   -0.000000
    0    0    0  114    4   -0.010674    0.000000
    0    0    0  115    4    0.008094   -0.000000
    0    0    0  116    4   -0.011916    0.000000
    0    0    0  117    4   -0.039966   -0.000000
    0    0    0  118    4   -0.052925    0.000000
    0    0    0  119    4   -0.005870   -0.000000
    0    0    0  120    4   -0.004066    0.000000
    0    0    0  121    4   -0.001562    0.000000
    0    0    0  122    4   -0.000098   -0.000000
    0    0    0  123    4    0.008354    0.000000
    0    0    0  124    4    0.033400    0.000000
    0    0    0  125    4   -0.028799    0.000000
    0    0    0  126    4    0.011902   -0.000000
    0    0    0  127    4   -0.015374    0.000000
    0    0    0  128    4    0.018082   -0.000000
    0    0    0  129    4   -0.087448   -0.000000
    0    0    0  130    4   -0.181529   -0.000000
    0    0    0  131    4   -0.023631    0.000000
    0    0    0  132    4   -0.012645    0.000000
    0    0    0  133    4    0.009899    0.000000
    0    0    0  134    4    0.093493   -0.000000
    0    0    0  135    4    0.049195    0.000000
    0    0    0  136    4    0.047706    0.000000
    0    0    0  137    4    0.013414    0.000000
    0    0    0  138    4   -0.006323    0.000000
    0    0    0  139    4   -0.003005    0.000000
    0    0    0  140    4   -0.021345   -0.000000
    0    0    0  141    4   -0.004256   -0.000000
    0    0    0  142    4   -0.019997   -0.000000
    0    0    0  143    4   -0.019381    0.000000
    0    0    0  144    4   -0.042337   -0.000000
    0    0    0  145    4   -0.020759    0.000000
    0    0    0  146    4    0.056354   -0.000000
    0    0    0  147    4    0.144880    0.000000
    0    0    0  148    4    0.041311    0.000000
    0    0    0  149    4   -0.093712    0.000000
    0    0    0  150    4   -0.018194   -0.000000
    0    0    0  151    4    0.049303    0.000000
    0    0    0  152    4    0.070092   -0.000000
    0    0    0  153    4   -0.303664    0.000000
    0    0    0  154    4   -1.288732    0.000000
    0    0    0  155    4   -0.007716    0.000000
    0    0    0  156    4    0.007870   -0.000000
    0    0    0  157    4   -0.008837    0.000000
    0    0    0  158    4    0.062606   -0.000000
    0    0    0  159    4   -0.066432    0.000000
    0    0    0  160    4   -0.035274    0.000000
    0    0    0  161    4   -0.009463    0.000000
    0    0    0  162    4   -0.004772   -0.000000
    0    0    0  163    4   -0.033700   -0.000000
    0    0    0  164    4   -0.007785    0.000000
    0    0    0  165    4    0.016228   -0.000000
    0    0    0  166    4    0.028553   -0.000000
    0    0    0  167    4    0.008042   -0.000000
    0    0    0  168    4   -0.001513    0.000000
    0    0    0  169    4    0.000401    0.000000
    0    0    0  170    4   -0.070679   -0.000000
    0    0    0  171    4   -0.215108   -0.000000
    0    0    0  172    4   -0.031205    0.000000
    0    0    0  173    4    0.025830    0.000000
    0    0    0  174    4   -0.005291    0.000000
    0    0    0  175    4   -0.034912   -0.000000
    0    0    0  176    4   -0.406075    0.000000
    0    0    0  177    4    0.184728   -0.000000
    0    0    0  178    4   -1.006992    0.000000
    0    0    0  179    4   -0.010285   -0.000000
    0    0    0  180    4   -0.023817   -0.000000
    0    0    0  181    4   -0.007173   -0.000000
    0    0    0  182    4   -0.025488   -0.000000
    0    0    0  183    4    0.074060   -0.000000
    0    0    0  184    4   -0.059196    0.000000
    0    0    0  185    4    0.011724    0.000000
    0    0    0  186    4   -0.011180   -0.000000
    0    0    0  187    4   -0.063898    0.000000
    0    0    0  188    4   -0.055372    0.000000
    0    0    0  189    4   -0.024419    0.000000
    0    0    0  190    4    0.271266    0.000000
    0    0    0  191    4   -0.010121    0.000000
    0    0    0  192    4    0.074290   -0.000000
    0    0    0  193    4    0.022845    0.000000
    0    0    0  194    4   -0.252479   -0.000000
    0    0    0  195    4   -0.009250   -0.000000
    0    0    0  196    4   -0.791081    0.000000
    0    0    0    1    5   -0.150505    0.000000
    0    0    0    2    5    0.180025   -0.000000
    0    0    0    3    5    0.050256   -0.000000
    0    0    0    4    5    0.081870   -0.000000
    0    0    0    5    5   -3.320218    0.000000
    0    0    0    6    5   -0.044447   -0.000000
    0    0    0    7    5    0.025101   -0.000000
    0    0    0    8    5    0.051699    0.000000
    0    0    0    9    5   -0.049753   -0.000000
    0    0    0   10    5    0.180163    0.000000
    0    0    0   11    5   -0.025158   -0.000000
    0    0    0   12    5    0.001237   -0.000000
    0    0    0   13    5   -0.044663   -0.000000
    0    0    0   14    5    0.010732    0.000000
    0    0    0   15    5    0.003607   -0.000000
    0    0    0   16    5    0.030700   -0.000000
    0    0    0   17    5   -0.141113    0.000000
    0    0    0   18    5    0.247335   -0.000000
    0    0    0   19    5    0.771028   -0.000000
    0    0    0   20    5    0.229736   -0.000000
    0    0    0   21    5   -0.001965    0.000000
    0    0    0   22    5    0.013022    0.000000
    0    0    0   23    5    0.000421    0.000000
    0    0    0   24    5   -0.000197    0.000000
    0    0    0   25    5    0.002304   -0.000000
    0    0    0   26    5   -0.015076    0.000000
    0    0    0   27    5   -0.008470   -0.000000
    0    0    0   28    5    0.023123   -0.000000
    0    0    0   29    5    0.023433    0.000000
    0    0    0   30    5   -0.002614   -0.000000
    0    0    0   31    5   -0.003623    0.000000
    0    0    0   32    5    0.051585    0.000000
    0    0    0   33    5   -0.018322   -0.000000
    0    0    0   34    5   -0.027446    0.000000
    0    0    0   35    5   -0.050006   -0.000000
    0    0    0   36    5   -0.010515   -0.000000
    0    0    0   37    5   -0.012084   -0.000000
    0    0    0   38    5    0.000728   -0.000000
    0    0    0   39    5   -0.024399   -0.000000
    0    0    0   40    5    0.010882    0.000000
    0    0    0   41    5    0.029152    0.000000
    0    0    0   42    5    0.020904   -0.000000
    0    0    0   43    5   -0.009180   -0.000000
    0    0    0   44    5    0.028116    0.000000
    0    0    0   45    5   -0.000235    0.000000
    0    0    0   46    5    0.013267    0.000000
    0    0    0   47    5   -0.059475   -0.000000
    0    0    0   48    5   -0.028383    0.000000
    0    0    0   49    5   -0.035876   -0.000000
    0    0    0   50    5   -0.024146    0.000000
    0    0    0   51    5    0.016890   -0.000000
    0    0    0   52    5   -0.004003   -0.000000
    0    0    0   53    5    0.025557    0.000000
    0    0    0   54    5    0.011174    0.000000
    0    0    0   55    5    0.007999   -0.000000
    0    0    0   56    5   -0.301135   -0.000000
    0    0    0   57    5    0.312515    0.000000
    0    0    0   58    5    0.152997    0.000000
    0    0    0   59    5   -0.069990   -0.000000
    0    0    0   60    5   -0.215739   -0.000000
    0    0    0   61    5    0.551263   -0.000000
    0    0    0   62    5    0.411647   -0.000000
    0    0    0   63    5   -0.301970    0.000000
    0    0    0   64    5    0.095739   -0.000000
    0    0    0   65    5   -0.244016    0.000000
    0    0    0   66    5    0.014185    0.000000
    0    0    0   67    5   -0.006300    0.000000
    0    0    0   68    5   -0.017661    0.000000
    0    0    0   69    5    0.004331   -0.000000
    0    0    0   70    5    0.013089   -0.000000
    0    0    0   71    5   -0.015809   -0.000000
    0    0    0   72    5    0.013231    0.000000
    0    0    0   73    5    0.009426    0.000000
    0    0    0   74    5   -0.009847    0.000000
    0    0    0   75    5    0.022966    0.000000
    0    0    0   76    5    0.072800   -0.000000
    0    0    0   77    5   -0.162551   -0.000000
    0    0    0   78    5    0.098880    0.000000
    0    0    0   79    5    0.047432    0.000000
    0    0    0   80    5   -0.005297   -0.000000
    0    0    0   81    5   -0.033920    0.000000
    0    0    0   82    5    0.033300    0.000000
    0    0    0   83    5   -0.102962   -0.000000
    0    0    0   84    5   -0.006879    0.000000
    0    0    0   85    5   -0.009234    0.000000
    0    0    0   86    5    0.016737   -0.000000
    0    0    0   87    5   -0.014263   -0.000000
    0    0    0   88    5   -0.008325    0.000000
    0    0    0   89    5   -0.014701    0.000000
    0    0    0   90    5   -0.013842   -0.000000
    0    0    0   91    5   -0.014279   -0.000000
    0    0    0   92    5   -0.016821    0.000000
    0    0    0   93    5   -0.005125    0.000000
    0    0    0   94    5   -0.004289   -0.000000
    0    0    0   95    5   -0.007256   -0.000000
    0    0    0   96    5   -0.082323    0.000000
    0    0    0   97    5   -0.063456    0.000000
    0    0    0   98    5   -0.181883    0.000000
    0    0    0   99    5    0.007416   -0.000000
    0    0    0  100    5   -0.080036    0.000000
    0    0    0  101    5    0.001887   -0.000000
    0    0    0  102    5    0.006437   -0.000000
    0    0    0  103    5    0.001032   -0.000000
    0    0    0  104    5    0.017694    0.000000
    0    0    0  105    5    0.024047    0.000000
    0    0    0  106    5   -0.022722    0.000000
    0    0    0  107    5   -0.008545   -0.000000
    0    0    0  108    5   -0.026517   -0.000000
    0    0    0  109    5   -0.007376    0.000000
    0    0    0  110    5   -0.009170   -0.000000
    0    0    0  111    5   -0.035334    0.000000
    0    0    0  112    5    0.077550   -0.000000
    0    0    0  113    5    0.009503   -0.000000
    0    0    0  114    5   -0.000207   -0.000000
    0    0    0  115    5   -0.000988   -0.000000
    0    0    0  116    5    0.009527   -0.000000
    0    0    0  117    5   -0.012498    0.000000
    0    0    0  118    5   -0.071374   -0.000000
    0    0    0  119    5   -0.001891   -0.000000
    0    0    0  120    5   -0.006203    0.000000
    0    0    0  121    5    0.005304   -0.000000
    0    0    0  122    5   -0.006572   -0.000000
    0    0    0  123    5    0.000133   -0.000000
    0    0    0  124    5   -0.008191    0.000000
    0    0    0  125    5   -0.024682   -0.000000
    0    0    0  126    5   -0.005673    0.000000
    0    0    0  127    5   -0.019165    0.000000
    0    0    0  128    5    0.033293   -0.000000
    0    0    0  129    5    0.023608    0.000000
    0    0    0  130    5   -0.073530    0.000000
    0    0    0  131    5   -0.023984   -0.000000
    0    0    0  132    5   -0.010553    0.000000
    0    0    0  133    5    0.012287    0.000000
    0    0    0  134    5    0.065196    0.000000
    0    0    0  135    5   -0.256091   -0.000000
    0    0    0  136    5    0.083294    0.000000
    0    0    0  137    5    0.001591   -0.000000
    0    0    0  138    5   -0.021719   -0.000000
    0    0    0  139    5    0.000613    0.000000
    0    0    0  140    5   -0.004519    0.000000
    0    0    0  141    5    0.026595   -0.000000
    0    0    0  142    5   -0.000638   -0.000000
    0    0    0  143    5   -0.000707    0.000000
    0    0    0  144    5   -0.028343    0.000000
    0    0    0  145    5   -0.021869    0.000000
    0    0    0  146    5   -0.089663    0.000000
    0    0    0  147    5    0.078786    0.000000
    0    0    0  148    5    0.065579    0.000000
    0    0    0  149    5    0.001820   -0.000000
    0    0    0  150    5   -0.010325    0.000000
    0    0    0  151    5   -0.009411    0.000000
    0    0    0  152    5    0.024067    0.000000
    0    0    0  153    5   -1.149227    0.000000
    0    0    0  154    5    0.132390   -0.000000
    0    0    0  155    5    0.027796    0.000000
    0    0    0  156    5   -0.041267   -0.000000
    0    0    0  157    5    0.034769    0.000000
    0    0    0  158    5   -0.035572    0.000000
    0    0    0  159    5    0.170918   -0.000000
    0    0    0  160    5   -0.147773    0.000000
    0    0    0  161    5   -0.004510   -0.000000
    0    0    0  162    5   -0.018137   -0.000000
    0    0    0  163    5    0.005288   -0.000000
    0    0    0  164    5    0.010704   -0.000000
    0    0    0  165    5    0.020903    0.000000
    0    0    0  166    5   -0.017001   -0.000000
    0    0    0  167    5   -0.002461   -0.000000
    0    0    0  168    5    0.019173   -0.000000
    0    0    0  169    5    0.013043    0.000000
    0    0    0  170    5   -0.075970    0.000000
    0    0    0  171    5   -0.101878   -0.000000
    0    0    0  172    5   -0.016171    0.000000
    0    0    0  173    5   -0.045983   -0.000000
    0    0    0  174    5    0.060173    0.000000
    0    0    0  175    5   -0.070483    0.000000
    0    0    0  176    5    0.369099   -0.000000
    0    0    0  177    5   -1.735150    0.000000
    0    0    0  178    5   -0.679865    0.000000
    0    0    0  179    5    0.008276    0.000000
    0    0    0  180    5   -0.010274   -0.000000
    0    0    0  181    5   -0.024149    0.000000
    0    0    0  182    5   -0.045557   -0.000000
    0    0    0  183    5    0.004263    0.000000
    0    0    0  184    5    0.071526   -0.000000
    0    0    0  185    5    0.006727    0.000000
    0    0    0  186    5   -0.000384    0.000000
    0    0    0  187    5    0.043338   -0.000000
    0    0    0  188    5    0.021516    0.000000
    0    0    0  189    5   -0.088214   -0.000000
    0    0    0  190    5   -0.031096   -0.000000
    0    0    0  191    5    0.000920    0.000000
    0    0    0  192    5    0.064422   -0.000000
    0    0    0  193    5    0.059651   -0.000000
    0    0    0  194    5    0.571938    0.000000
    0    0    0  195    5   -0.067395   -0.000000
    0    0    0  196    5    0.589714    0.000000
    0    0    0    1    6    0.018756   -0.000000
    0    0    0    2    6   -0.105545   -0.000000
    0    0    0    3    6    0.033951    0.000000
    0    0    0    4    6   -0.065509   -0.000000
    0    0    0    5    6   -0.044447    0.000000
    0    0    0    6    6   -3.529532   -0.000000
    0    0    0    7    6   -0.129813    0.000000
    0    0    0    8    6    0.021174   -0.000000
    0    0    0    9    6    0.163491   -0.000000
    0    0    0   10    6   -0.163419   -0.000000
    0    0    0   11    6   -0.008567    0.000000
    0    0    0   12    6    0.069069    0.000000
    0    0    0   13    6   -0.009680   -0.000000
    0    0    0   14    6   -0.011791   -0.000000
    0    0    0   15    6   -0.050602    0.000000
    0    0    0   16    6    0.017767    0.000000
    0    0    0   17    6    0.014363    0.000000
    0    0    0   18    6   -0.003258   -0.000000
    0    0    0   19    6   -0.041676    0.000000
    0    0    0   20    6    0.020752    0.000000
    0    0    0   21    6   -0.013081   -0.000000
    0    0    0   22    6    0.006183   -0.000000
    0    0    0   23    6    0.028085   -0.000000
    0    0    0   24    6    0.010218   -0.000000
    0    0    0   25    6    0.021860   -0.000000
    0    0    0   26    6    0.003257    0.000000
    0    0    0   27    6   -0.001544   -0.000000
    0    0    0   28    6    0.002175   -0.000000
    0    0    0   29    6   -0.000941    0.000000
    0    0    0   30    6   -0.001119    0.000000
    0    0    0   31    6   -0.015521   -0.000000
    0    0    0   32    6   -0.003335   -0.000000
    0    0    0   33    6    0.007925    0.000000
    0    0    0   34    6   -0.009732    0.000000
    0    0    0   35    6   -0.021428    0.000000
    0    0    0   36    6    0.054951    0.000000
    0    0    0   37    6    0.009127    0.000000
    0    0    0   38    6    0.074954   -0.000000
    0    0    0   39    6    0.018761   -0.000000
    0    0    0   40    6   -0.020583   -0.000000
    0    0    0   41    6   -0.012800    0.000000
    0    0    0   42    6    0.015164    0.000000
    0    0    0   43    6   -0.003374    0.000000
    0    0    0   44    6    0.001636   -0.000000
    0    0    0   45    6   -0.012032    0.000000
    0    0    0   46    6    0.024726   -0.000000
    0    0    0   47    6    0.032563   -0.000000
    0    0    0   48    6   -0.014572   -0.000000
    0    0    0   49    6   -0.012572    0.000000
    0    0    0   50    6   -0.026098   -0.000000
    0    0    0   51    6    0.143711   -0.000000
    0    0    0   52    6    0.266278   -0.000000
    0    0    0   53    6    0.094211    0.000000
    0    0    0   54    6   -0.009249   -0.000000
    0    0    0   55    6   -0.494818    0.000000
    0    0    0   56    6    0.325309   -0.000000
    0    0    0   57    6   -0.194194   -0.000000
    0    0    0   58    6    0.263099    0.000000
    0    0    0   59    6   -0.322295   -0.000000
    0    0    0   60    6    0.438805    0.000000
    0    0    0   61    6   -0.010495    0.000000
    0    0    0   62    6    0.026011   -0.000000
    0    0    0   63    6    0.007172   -0.000000
    0    0    0   64    6    0.018060    0.000000
    0    0    0   65    6   -0.020890   -0.000000
    0    0    0   66    6   -0.014473   -0.000000
    0    0    0   67    6   -0.013868   -0.000000
    0    0    0   68    6   -0.013444    0.000000
    0    0    0   69    6    0.036116   -0.000000
    0    0    0   70    6    0.031619   -0.000000
    0    0    0   71    6   -0.003673   -0.000000
    0    0    0   72    6    0.017797    0.000000
    0    0    0   73    6    0.008223   -0.000000
    0    0    0   74    6   -0.023797   -0.000000
    0    0    0   75    6   -0.001413    0.000000
    0    0    0   76    6    0.128756   -0.000000
    0    0    0   77    6   -0.007159    0.000000
    0    0    0   78    6   -0.444814    0.000000
    0    0    0   79    6    0.530232    0.000000
    0    0    0   80    6    0.148601   -0.000000
    0    0    0   81    6    0.021376    0.000000
    0    0    0   82    6    0.002120    0.000000
    0    0    0   83    6   -0.003450    0.000000
    0    0    0   84    6    0.024974    0.000000
    0    0    0   85    6    0.040551    0.000000
    0    0    0   86    6    0.006837    0.000000
    0    0    0   87    6   -0.004779    0.000000
    0    0    0   88    6    0.002005   -0.000000
    0    0    0   89    6   -0.020072    0.000000
    0    0    0   90    6    0.009301   -0.000000
    0    0    0   91    6   -0.017870   -0.000000
    0    0    0   92    6   -0.020048   -0.000000
    0    0    0   93    6   -0.004643   -0.000000
    0    0    0   94    6   -0.018151    0.000000
    0    0    0   95    6    0.003476   -0.000000
    0    0    0   96    6   -0.008707   -0.000000
    0    0    0   97    6    0.000691   -0.000000
    0    0    0   98    6   -0.018407   -0.000000
    0    0    0   99    6    0.005427   -0.000000
    0    0    0  100    6    0.016912   -0.000000
    0    0    0  101    6   -0.005388    0.000000
    0    0    0  102    6   -0.003377    0.000000
    0    0    0  103    6   -0.004220   -0.000000
    0    0    0  104    6    0.011254   -0.000000
    0    0    0  105    6    0.013587   -0.000000
    0    0    0  106    6    0.002964    0.000000
    0    0    0  107    6   -0.010275    0.000000
    0    0    0  108    6   -0.000781    0.000000
    0    0    0  109    6   -0.007470    0.000000
    0    0    0  110    6    0.005295    0.000000
    0    0    0  111    6   -0.007069   -0.000000
    0    0    0  112    6    0.002115    0.000000
    0    0    0  113    6    0.015219   -0.000000
    0    0    0  114    6    0.000681   -0.000000
    0    0    0  115    6    0.012092    0.000000
    0    0    0  116    6   -0.007477    0.000000
    0    0    0  117    6    0.003195    0.000000
    0    0    0  118    6   -0.007991   -0.000000
    0    0    0  119    6    0.014873    0.000000
    0    0    0  120    6   -0.004126   -0.000000
    0    0    0  121    6    0.005610   -0.000000
    0    0    0  122    6   -0.001204   -0.000000
    0    0    0  123    6   -0.001465    0.000000
    0    0    0  124    6    0.002241   -0.000000
    0    0    0  125    6    0.012837    0.000000
    0    0    0  126    6   -0.002390    0.000000
    0    0    0  127    6    0.013943    0.000000
    0    0    0  128    6    0.015430    0.000000
    0    0    0  129    6    0.000024   -0.000000
    0    0    0  130    6    0.010458   -0.000000
    0    0    0  131    6    0.016934    0.000000
    0    0    0  132    6    0.012449   -0.000000
    0    0    0  133    6   -0.012381   -0.000000
    0    0    0  134    6   -0.064766   -0.000000
    0    0    0  135    6    0.034899   -0.000000
    0    0    0  136    6    0.005955   -0.000000
    0    0    0  137    6    0.043216    0.000000
    0    0    0  138    6   -0.001498   -0.000000
    0    0    0  139    6   -0.010627   -0.000000
    0    0    0  140    6   -0.071839   -0.000000
    0    0    0  141    6    0.108804    0.000000
    0    0    0  142    6    0.003565   -0.000000
    0    0    0  143    6   -0.155716   -0.000000
    0    0    0  144    6   -0.013483    0.000000
    0    0    0  145    6    0.060220    0.000000
    0    0    0  146    6    0.841637    0.000000
    0    0    0  147    6    0.048539   -0.000000
    0    0    0  148    6   -0.276269   -0.000000
    0    0    0  149    6    0.024423    0.000000
    0    0    0  150    6   -0.017054    0.000000
    0    0    0  151    6    0.009554   -0.000000
    0    0    0  152    6    0.013262   -0.000000
    0    0    0  153    6   -0.114081   -0.000000
    0    0    0  154    6    0.020073    0.000000
    0    0    0  155    6   -0.021704    0.000000
    0    0    0  156    6    0.003476    0.000000
    0    0    0  157    6    0.013445    0.000000
    0    0    0  158    6    0.022138   -0.000000
    0    0    0  159    6    0.001174    0.000000
    0    0    0  160    6    0.004816   -0.000000
    0    0    0  161    6    0.007881    0.000000
    0    0    0  162    6   -0.000287   -0.000000
    0    0    0  163    6    0.009018   -0.000000
    0    0    0  164    6    0.001082   -0.000000
    0    0    0  165    6    0.019293    0.000000
    0    0    0  166    6   -0.030056   -0.000000
    0    0    0  167    6   -0.100674    0.000000
    0    0    0  168    6    0.062910   -0.000000
    0    0    0  169    6    0.004020   -0.000000
    0    0    0  170    6    0.332365    0.000000
    0    0    0  171    6   -0.258168    0.000000
    0    0    0  172    6   -0.154960   -0.000000
    0    0    0  173    6   -0.123973    0.000000
    0    0    0  174    6   -0.059477   -0.000000
    0    0    0  175    6   -0.051593   -0.000000
    0    0    0  176    6    1.114126    0.000000
    0    0    0  177    6    0.116305    0.000000
    0    0    0  178    6   -0.539344    0.000000
    0    0    0  179    6    0.044570    0.000000
    0    0    0  180    6    0.006057   -0.000000
    0    0    0  181    6    0.006244   -0.000000
    0    0    0  182    6   -0.015006    0.000000
    0    0    0  183    6    0.020772    0.000000
    0    0    0  184    6   -0.061069    0.000000
    0    0    0  185    6    0.012265   -0.000000
    0    0    0  186    6    0.002600    0.000000
    0    0    0  187    6    0.005047   -0.000000
    0    0    0  188    6   -0.017282   -0.000000
    0    0    0  189    6   -0.013359   -0.000000
    0    0    0  190    6   -0.010516   -0.000000
    0    0    0  191    6    0.010256    0.000000
    0    0    0  192    6    0.012929    0.000000
    0    0    0  193    6   -0.006766    0.000000
    0    0    0  194    6    0.007077   -0.000000
    0    0    0  195    6   -0.215649    0.000000
    0    0    0  196    6    0.011797    0.000000
    0    0    0    1    7    0.003061    0.000000
    0    0    0    2    7    0.049111    0.000000
    0    0    0    3    7    0.097134    0.000000
    0    0    0    4    7    0.170928   -0.000000
    0    0    0    5    7    0.025101    0.000000
    0    0    0    6    7   -0.129813   -0.000000
    0    0    0    7    7   -3.691659    0.000000
    0    0    0    8    7    0.154326   -0.000000
    0    0    0    9    7    0.219717   -0.000000
    0    0    0   10    7    0.134191    0.000000
    0    0    0   11    7   -0.005126    0.000000
    0    0    0   12    7    0.071292    0.000000
    0    0    0   13    7   -0.016858   -0.000000
    0    0    0   14    7   -0.077652   -0.000000
    0    0    0   15    7    0.021095    0.000000
    0    0    0   16    7    0.006669    0.000000
    0    0    0   17    7    0.011013    0.000000
    0    0    0   18    7    0.014505   -0.000000
    0    0    0   19    7    0.036503    0.000000
    0    0    0   20    7    0.038705    0.000000
    0    0    0   21    7    0.007671    0.000000
    0    0    0   22    7    0.026339   -0.000000
    0    0    0   23    7    0.031596   -0.000000
    0    0    0   24    7    0.010233   -0.000000
    0    0    0   25    7   -0.001941   -0.000000
    0    0    0   26    7   -0.003088    0.000000
    0    0    0   27    7    0.011539   -0.000000
    0    0    0   28    7    0.004696   -0.000000
    0    0    0   29    7   -0.000312    0.000000
    0    0    0   30    7   -0.015791    0.000000
    0    0    0   31    7    0.018883   -0.000000
    0    0    0   32    7   -0.011052   -0.000000
    0    0    0   33    7    0.009308    0.000000
    0    0    0   34    7   -0.036684    0.000000
    0    0    0   35    7    0.027347    0.000000
    0    0    0   36    7    0.018703   -0.000000
    0    0    0   37    7   -0.016473   -0.000000
    0    0    0   38    7    0.174661   -0.000000
    0    0    0   39    7    0.093626   -0.000000
    0    0    0   40    7   -0.016454   -0.000000
    0    0    0   41    7   -0.008758    0.000000
    0    0    0   42    7   -0.005727    0.000000
    0    0    0   43    7   -0.018736    0.000000
    0    0    0   44    7    0.005760   -0.000000
    0    0    0   45    7   -0.032409    0.000000
    0    0    0   46    7    0.016271    0.000000
    0    0    0   47    7    0.071603   -0.000000
    0    0    0   48    7   -0.077795   -0.000000
    0    0    0   49    7   -0.051507    0.000000
    0    0    0   50    7    0.057580   -0.000000
    0    0    0   51    7    0.269997   -0.000000
    0    0    0   52    7   -0.417823    0.000000
    0    0    0   53    7   -0.307121    0.000000
    0    0    0   54    7    0.127190   -0.000000
    0    0    0   55    7    0.596678   -0.000000
    0    0    0   56    7   -0.180685   -0.000000
    0    0    0   57    7   -0.042327    0.000000
    0    0    0   58    7   -0.173043    0.000000
    0    0    0   59    7    0.034163   -0.000000
    0    0    0   60    7   -0.048915    0.000000
    0    0    0   61    7    0.027967    0.000000
    0    0    0   62    7    0.035538    0.000000
    0    0    0   63    7    0.011936    0.000000
    0    0    0   64    7    0.003977    0.000000
    0    0    0   65    7   -0.009047   -0.000000
    0    0    0   66    7    0.001294   -0.000000
    0    0    0   67    7    0.020624    0.000000
    0    0    0   68    7   -0.011067   -0.000000
    0    0    0   69    7    0.001527   -0.000000
    0    0    0   70    7   -0.007700   -0.000000
    0    0    0   71    7   -0.012443   -0.000000
    0    0    0   72    7    0.024585    0.000000
    0    0    0   73    7   -0.012874   -0.000000
    0    0    0   74    7    0.033551   -0.000000
    0    0    0   75    7    0.002217    0.000000
    0    0    0   76    7   -0.065108   -0.000000
    0    0    0   77    7   -0.490700   -0.000000
    0    0    0   78    7    0.104445    0.000000
    0    0    0   79    7    0.056833    0.000000
    0    0    0   80    7    0.052702   -0.000000
    0    0    0   81    7   -0.210254   -0.000000
    0    0    0   82    7    0.172566    0.000000
    0    0    0   83    7   -0.010445    0.000000
    0    0    0   84    7    0.102780    0.000000
    0    0    0   85    7    0.074082    0.000000
    0    0    0   86    7    0.018422    0.000000
    0    0    0   87    7    0.007955    0.000000
    0    0    0   88    7   -0.006918   -0.000000
    0    0    0   89    7   -0.039893   -0.000000
    0    0    0   90    7    0.006625   -0.000000
    0    0    0   91    7   -0.008233    0.000000
    0    0    0   92    7   -0.035405   -0.000000
    0    0    0   93    7   -0.013872    0.000000
    0    0    0   94    7   -0.017632    0.000000
    0    0    0   95    7   -0.005494   -0.000000
    0    0    0   96    7   -0.011440    0.000000
    0    0    0   97    7   -0.094499   -0.000000
    0    0    0   98    7   -0.065354   -0.000000
    0    0    0   99    7    0.003647   -0.000000
    0    0    0  100    7    0.010504   -0.000000
    0    0    0  101    7    0.001008    0.000000
    0    0    0  102    7   -0.017318   -0.000000
    0    0    0  103    7   -0.001626    0.000000
    0    0    0  104    7    0.015744    0.000000
    0    0    0  105    7    0.022614   -0.000000
    0    0    0  106    7   -0.005012    0.000000
    0    0    0  107    7    0.016694    0.000000
    0    0    0  108    7    0.000164    0.000000
    0    0    0  109    7   -0.003686    0.000000
    0    0    0  110    7   -0.005889    0.000000
    0    0    0  111    7   -0.003717   -0.000000
    0    0    0  112    7    0.003640    0.000000
    0    0    0  113    7    0.010894   -0.000000
    0    0    0  114    7    0.013162   -0.000000
    0    0    0  115    7    0.016348   -0.000000
    0    0    0  116    7    0.036464   -0.000000
    0    0    0  117    7   -0.018267    0.000000
    0    0    0  118    7   -0.010906   -0.000000
    0    0    0  119    7    0.006351    0.000000
    0    0    0  120    7   -0.017301    0.000000
    0    0    0  121    7    0.021726   -0.000000
    0    0    0  122    7    0.021548   -0.000000
    0    0    0  123    7   -0.000502    0.000000
    0    0    0  124    7   -0.012236    0.000000
    0    0    0  125    7    0.012559    0.000000
    0    0    0  126    7   -0.019028    0.000000
    0    0    0  127    7    0.003719    0.000000
    0    0    0  128    7    0.005800    0.000000
    0    0    0  129    7   -0.015907   -0.000000
    0    0    0  130    7   -0.020264    0.000000
    0    0    0  131    7    0.016265    0.000000
    0    0    0  132    7    0.038394   -0.000000
    0    0    0  133    7   -0.020920    0.000000
    0    0    0  134    7   -0.009455   -0.000000
    0    0    0  135    7   -0.016309   -0.000000
    0    0    0  136    7    0.025132   -0.000000
    0    0    0  137    7   -0.034843    0.000000
    0    0    0  138    7    0.045679   -0.000000
    0    0    0  139    7    0.032656   -0.000000
    0    0    0  140    7   -0.097947   -0.000000
    0    0    0  141    7   -0.002720   -0.000000
    0    0    0  142    7   -0.023648   -0.000000
    0    0    0  143    7   -0.023394    0.000000
    0    0    0  144    7    0.038805    0.000000
    0    0    0  145    7   -0.058925   -0.000000
    0    0    0  146    7   -0.297257   -0.000000
    0    0    0  147    7    0.157447    0.000000
    0    0    0  148    7   -1.007656    0.000000
    0    0    0  149    7   -0.041071    0.000000
    0    0    0  150    7   -0.017490    0.000000
    0    0    0  151    7   -0.004062   -0.000000
    0    0    0  152    7    0.036841   -0.000000
    0    0    0  153    7    0.009628   -0.000000
    0    0    0  154    7   -0.081230    0.000000
    0    0    0  155    7   -0.005485    0.000000
    0    0    0  156    7   -0.013357    0.000000
    0    0    0  157    7    0.005121    0.000000
    0    0    0  158    7    0.008723   -0.000000
    0    0    0  159    7    0.012810    0.000000
    0    0    0  160    7    0.013490   -0.000000
    0    0    0  161    7   -0.017269   -0.000000
    0    0    0  162    7    0.003443   -0.000000
    0    0    0  163    7   -0.008755   -0.000000
    0    0    0  164    7    0.039912   -0.000000
    0    0    0  165    7    0.003061    0.000000
    0    0    0  166    7   -0.009463    0.000000
    0    0    0  167    7    0.012313   -0.000000
    0    0    0  168    7    0.009868   -0.000000
    0    0    0  169    7    0.104930    0.000000
    0    0    0  170    7   -0.727699   -0.000000
    0    0    0  171    7   -0.380857   -0.000000
    0    0    0  172    7    0.279055    0.000000
    0    0    0  173    7    0.293636    0.000000
    0    0    0  174    7    0.076597    0.000000
    0    0    0  175    7   -0.059162    0.000000
    0    0    0  176    7    0.864645   -0.000000
    0    0    0  177    7   -1.145493    0.000000
    0    0    0  178    7   -1.787414    0.000000
    0    0    0  179    7   -0.003266    0.000000
    0    0    0  180    7   -0.030062   -0.000000
    0    0    0  181    7    0.013256    0.000000
    0    0    0  182    7   -0.023024    0.000000
    0    0    0  183    7    0.007207    0.000000
    0    0    0  184    7    0.162942    0.000000
    0    0    0  185    7    0.002134   -0.000000
    0    0    0  186    7    0.007937    0.000000
    0    0    0  187    7    0.044155   -0.000000
    0    0    0  188    7   -0.042052   -0.000000
    0    0    0  189    7   -0.020455   -0.000000
    0    0    0  190    7   -0.040194   -0.000000
    0    0    0  191    7   -0.038912   -0.000000
    0    0    0  192    7    0.063732   -0.000000
    0    0    0  193    7    0.022175    0.000000
    0    0    0  194    7    0.028761   -0.000000
    0    0    0  195    7    0.046128   -0.000000
    0    0    0  196    7    0.010040    0.000000
    0    0    0    1    8    0.074674    0.000000
    0    0    0    2    8   -0.137659    0.000000
    0    0    0    3    8   -0.039531    0.000000
    0    0    0    4    8    0.020665    0.000000
    0    0    0    5    8    0.051699   -0.000000
    0    0    0    6    8    0.021174    0.000000
    0    0    0    7    8    0.154326    0.000000
    0    0    0    8    8   -3.988581   -0.000000
    0    0    0    9    8    0.232913    0.000000
    0    0    0   10    8    0.049124    0.000000
    0    0    0   11    8    0.073480   -0.000000
    0    0    0   12    8    0.031526   -0.000000
    0    0    0   13    8   -0.027668    0.000000
    0    0    0   14    8    0.048639   -0.000000
    0    0    0   15    8    0.010316   -0.000000
    0    0    0   16    8    0.021946   -0.000000
    0    0    0   17    8    0.015886   -0.000000
    0    0    0   18    8   -0.004308    0.000000
    0    0    0   19    8    0.027787   -0.000000
    0    0    0   20    8    0.028064   -0.000000
    0    0    0   21    8   -0.005658    0.000000
    0    0    0   22    8    0.010109   -0.000000
    0    0    0   23    8    0.017248   -0.000000
    0    0    0   24    8   -0.002496    0.000000
    0    0    0   25    8   -0.025186    0.000000
    0    0    0   26    8    0.007625    0.000000
    0    0    0   27    8   -0.014785    0.000000
    0    0    0   28    8   -0.016800    0.000000
    0    0    0   29    8   -0.002698    0.000000
    0    0    0   30    8    0.015725   -0.000000
    0    0    0   31    8   -0.013105    0.000000
    0    0    0   32    8   -0.004894    0.000000
    0    0    0   33    8    0.010541   -0.000000
    0    0    0   34    8    0.023205   -0.000000
    0    0    0   35    8   -0.000714   -0.000000
    0    0    0   36    8    0.074802   -0.000000
    0    0    0   37    8    0.011534   -0.000000
    0    0    0   38    8    0.056489    0.000000
    0    0    0   39    8    0.062618    0.000000
    0    0    0   40    8    0.012716    0.000000
    0    0    0   41    8    0.002375    0.000000
    0    0    0   42    8    0.001817   -0.000000
    0    0    0   43    8   -0.002551   -0.000000
    0    0    0   44    8    0.006340    0.000000
    0    0    0   45    8    0.009694   -0.000000
    0    0    0   46    8   -0.001424    0.000000
    0    0    0   47    8   -0.136269    0.000000
    0    0    0   48    8    0.146067    0.000000
    0    0    0   49    8   -0.010786   -0.000000
    0    0    0   50    8   -0.131297   -0.000000
    0    0    0   51    8   -0.201792    0.000000
    0    0    0   52    8    0.139671    0.000000
    0    0    0   53    8    0.040980    0.000000
    0    0    0   54    8    0.075460    0.000000
    0    0    0   55    8   -0.136998    0.000000
    0    0    0   56    8    0.072194    0.000000
    0    0    0   57    8    0.324867    0.000000
    0    0    0   58    8   -0.464971   -0.000000
    0    0    0   59    8    0.360703    0.000000
    0    0    0   60    8   -0.405846    0.000000
    0    0    0   61    8   -0.005889   -0.000000
    0    0    0   62    8   -0.010030    0.000000
    0    0    0   63    8   -0.007995    0.000000
    0    0    0   64    8    0.006107   -0.000000
    0    0    0   65    8   -0.060636    0.000000
    0    0    0   66    8   -0.005554    0.000000
    0    0    0   67    8   -0.017418   -0.000000
    0    0    0   68    8   -0.002125    0.000000
    0    0    0   69    8    0.021502    0.000000
    0    0    0   70    8    0.037748    0.000000
    0    0    0   71    8    0.000359    0.000000
    0    0    0   72    8   -0.005580   -0.000000
    0    0    0   73    8    0.006591    0.000000
    0    0    0   74    8    0.002080    0.000000
    0    0    0   75    8    0.015194    0.000000
    0    0    0   76    8   -0.314529    0.000000
    0    0    0   77    8   -0.076750   -0.000000
    0    0    0   78    8   -0.415401   -0.000000
    0    0    0   79    8    0.227389    0.000000
    0    0    0   80    8    0.017700   -0.000000
    0    0    0   81    8   -0.033707   -0.000000
    0    0    0   82    8    0.068822    0.000000
    0    0    0   83    8    0.038592   -0.000000
    0    0    0   84    8   -0.021227    0.000000
    0    0    0   85    8    0.051762   -0.000000
    0    0    0   86    8   -0.018819   -0.000000
    0    0    0   87    8    0.012125   -0.000000
    0    0    0   88    8    0.009943    0.000000
    0    0    0   89    8    0.036378   -0.000000
    0    0    0   90    8   -0.004732    0.000000
    0    0    0   91    8    0.003423    0.000000
    0    0    0   92    8    0.005777    0.000000
    0    0    0   93    8   -0.012287    0.000000
    0    0    0   94    8    0.003205    0.000000
    0    0    0   95    8   -0.006070   -0.000000
    0    0    0   96    8    0.006622    0.000000
    0    0    0   97    8   -0.006562    0.000000
    0    0    0   98    8   -0.045738    0.000000
    0    0    0   99    8   -0.022185    0.000000
    0    0    0  100    8    0.003832    0.000000
    0    0    0  101    8    0.009479   -0.000000
    0    0    0  102    8    0.001648   -0.000000
    0    0    0  103    8   -0.002211   -0.000000
    0    0    0  104    8   -0.006178   -0.000000
    0    0    0  105    8    0.001048   -0.000000
    0    0    0  106    8    0.018010    0.000000
    0    0    0  107    8   -0.003211   -0.000000
    0    0    0  108    8    0.010365   -0.000000
    0    0    0  109    8    0.002709   -0.000000
    0    0    0  110    8    0.000874   -0.000000
    0    0    0  111    8   -0.004861   -0.000000
    0    0    0  112    8    0.000042    0.000000
    0    0    0  113    8    0.005746   -0.000000
    0    0    0  114    8   -0.009422    0.000000
    0    0    0  115    8    0.013323    0.000000
    0    0    0  116    8   -0.007253   -0.000000
    0    0    0  117    8    0.005204   -0.000000
    0    0    0  118    8   -0.005141    0.000000
    0    0    0  119    8    0.000730   -0.000000
    0    0    0  120    8    0.011072   -0.000000
    0    0    0  121    8    0.015811   -0.000000
    0    0    0  122    8    0.024657    0.000000
    0    0    0  123    8   -0.012401    0.000000
    0    0    0  124    8   -0.028649    0.000000
    0    0    0  125    8    0.003004   -0.000000
    0    0    0  126    8    0.013547   -0.000000
    0    0    0  127    8    0.017700   -0.000000
    0    0    0  128    8    0.011371   -0.000000
    0    0    0  129    8    0.011914    0.000000
    0    0    0  130    8   -0.010540    0.000000
    0    0    0  131    8    0.028926   -0.000000
    0    0    0  132    8   -0.036613    0.000000
    0    0    0  133    8   -0.002884    0.000000
    0    0    0  134    8   -0.032314    0.000000
    0    0    0  135    8    0.014347    0.000000
    0    0    0  136    8   -0.029877    0.000000
    0    0    0  137    8    0.006605   -0.000000
    0    0    0  138    8   -0.010492   -0.000000
    0    0    0  139    8   -0.009778    0.000000
    0    0    0  140    8    0.022038    0.000000
    0    0    0  141    8    0.074287   -0.000000
    0    0    0  142    8    0.015738    0.000000
    0    0    0  143    8   -0.058619   -0.000000
    0    0    0  144    8   -0.045262   -0.000000
    0    0    0  145    8   -0.048519    0.000000
    0    0    0  146    8   -0.111355    0.000000
    0    0    0  147    8   -0.414263   -0.000000
    0    0    0  148    8   -1.096824    0.000000
    0    0    0  149    8    0.019585    0.000000
    0    0    0  150    8   -0.024932   -0.000000
    0    0    0  151    8    0.005693    0.000000
    0    0    0  152    8   -0.083936    0.000000
    0    0    0  153    8   -0.009727    0.000000
    0    0    0  154    8    0.014041   -0.000000
    0    0    0  155    8   -0.008897   -0.000000
    0    0    0  156    8    0.002681   -0.000000
    0    0    0  157    8    0.011588    0.000000
    0    0    0  158    8    0.008106    0.000000
    0    0    0  159    8   -0.006977   -0.000000
    0    0    0  160    8    0.005674    0.000000
    0    0    0  161    8   -0.005834   -0.000000
    0    0    0  162    8   -0.016730   -0.000000
    0    0    0  163    8    0.010946    0.000000
    0    0    0  164    8   -0.026280    0.000000
    0    0    0  165    8    0.001865   -0.000000
    0    0    0  166    8    0.041305   -0.000000
    0    0    0  167    8    0.051698   -0.000000
    0    0    0  168    8    0.058746    0.000000
    0    0    0  169    8   -0.011870    0.000000
    0    0    0  170    8    1.217998    0.000000
    0    0    0  171    8    0.777732   -0.000000
    0    0    0  172    8   -0.226321   -0.000000
    0    0    0  173    8    0.066322    0.000000
    0    0    0  174    8   -0.037642    0.000000
    0    0    0  175    8    0.096406   -0.000000
    0    0    0  176    8   -0.126811   -0.000000
    0    0    0  177    8   -0.302566   -0.000000
    0    0    0  178    8    0.015264   -0.000000
    0    0    0  179    8    0.008725   -0.000000
    0    0    0  180    8   -0.012549   -0.000000
    0    0    0  181    8    0.043964   -0.000000
    0    0    0  182    8    0.090873    0.000000
    0    0    0  183    8    0.000507   -0.000000
    0    0    0  184    8    0.025812    0.000000
    0    0    0  185    8   -0.022300    0.000000
    0    0    0  186    8    0.009441    0.000000
    0    0    0  187    8   -0.009752    0.000000
    0    0    0  188    8    0.002278    0.000000
    0    0    0  189    8   -0.012236   -0.000000
    0    0    0  190    8   -0.003694   -0.000000
    0    0    0  191    8   -0.001661   -0.000000
    0    0    0  192    8   -0.006363   -0.000000
    0    0    0  193    8    0.015460    0.000000
    0    0    0  194    8   -0.028271    0.000000
    0    0    0  195    8   -0.153814   -0.000000
    0    0    0  196    8    0.002737    0.000000
    0    0    0    1    9   -0.019438    0.000000
    0    0    0    2    9   -0.086408   -0.000000
    0    0    0    3    9    0.026273   -0.000000
    0    0    0    4    9    0.058694    0.000000
    0    0    0    5    9   -0.049753    0.000000
    0    0    0    6    9    0.163491    0.000000
    0    0    0    7    9    0.219717    0.000000
    0    0    0    8    9    0.232913   -0.000000
    0    0    0    9    9   -3.687546   -0.000000
    0    0    0   10    9    0.283304    0.000000
    0    0    0   11    9   -0.019583    0.000000
    0    0    0   12    9    0.256071    0.000000
    0    0    0   13    9   -0.112470    0.000000
    0    0    0   14    9    0.022272   -0.000000
    0    0    0   15    9    0.108053    0.000000
    0    0    0   16    9   -0.049492   -0.000000
    0    0    0   17    9   -0.007793   -0.000000
    0    0    0   18    9   -0.017827   -0.000000
    0    0    0   19    9   -0.003218   -0.000000
    0    0    0   20    9   -0.041033   -0.000000
    0    0    0   21    9    0.013293    0.000000
    0    0    0   22    9   -0.019457    0.000000
    0    0    0   23    9    0.006135   -0.000000
    0    0    0   24    9    0.006617   -0.000000
    0    0    0   25    9   -0.001694    0.000000
    0    0    0   26    9   -0.001226    0.000000
    0    0    0   27    9    0.000372   -0.000000
    0    0    0   28    9    0.016291   -0.000000
    0    0    0   29    9    0.019121   -0.000000
    0    0    0   30    9    0.002015   -0.000000
[...]
    0    0    0  190  194    0.514173   -0.000000
    0    0    0  191  194    0.465384   -0.000000
    0    0    0  192  194    0.130125    0.000000
    0    0    0  193  194   -0.078491    0.000000
    0    0    0  194  194   -3.494796   -0.000000
    0    0    0  195  194   -0.366874    0.000000
    0    0    0  196  194    0.807257   -0.000000
    0    0    0    1  195   -1.055899   -0.000000
    0    0    0    2  195    0.258004    0.000000
    0    0    0    3  195    0.290990   -0.000000
    0    0    0    4  195   -0.009250    0.000000
    0    0    0    5  195   -0.067395    0.000000
    0    0    0    6  195   -0.215649   -0.000000
    0    0    0    7  195    0.046128    0.000000
    0    0    0    8  195   -0.153814    0.000000
    0    0    0    9  195    0.103687    0.000000
    0    0    0   10  195    0.116362   -0.000000
    0    0    0   11  195    0.022396    0.000000
    0    0    0   12  195   -0.010037   -0.000000
    0    0    0   13  195    0.016064    0.000000
    0    0    0   14  195    0.014748   -0.000000
    0    0    0   15  195   -0.018291    0.000000
    0    0    0   16  195   -0.369346    0.000000
    0    0    0   17  195   -0.331121    0.000000
    0    0    0   18  195   -0.112328   -0.000000
    0    0    0   19  195    0.257927    0.000000
    0    0    0   20  195   -0.323224   -0.000000
    0    0    0   21  195    0.012555   -0.000000
    0    0    0   22  195   -0.044095   -0.000000
    0    0    0   23  195   -0.071348   -0.000000
    0    0    0   24  195    0.024975    0.000000
    0    0    0   25  195    0.007861   -0.000000
    0    0    0   26  195   -0.011961    0.000000
    0    0    0   27  195    0.031036    0.000000
    0    0    0   28  195    0.004039   -0.000000
    0    0    0   29  195    0.017669   -0.000000
    0    0    0   30  195   -0.007119    0.000000
    0    0    0   31  195    0.059633   -0.000000
    0    0    0   32  195    0.037245   -0.000000
    0    0    0   33  195    0.025055    0.000000
    0    0    0   34  195   -0.045332   -0.000000
    0    0    0   35  195   -0.005273   -0.000000
    0    0    0   36  195   -0.007304   -0.000000
    0    0    0   37  195   -0.030248    0.000000
    0    0    0   38  195   -0.017909    0.000000
    0    0    0   39  195    0.024150    0.000000
    0    0    0   40  195   -0.003485    0.000000
    0    0    0   41  195    0.002779   -0.000000
    0    0    0   42  195   -0.034902    0.000000
    0    0    0   43  195   -0.018901    0.000000
    0    0    0   44  195    0.022711   -0.000000
    0    0    0   45  195   -0.033190    0.000000
    0    0    0   46  195    0.035143   -0.000000
    0    0    0   47  195   -0.016412    0.000000
    0    0    0   48  195    0.007765   -0.000000
    0    0    0   49  195   -0.030285    0.000000
    0    0    0   50  195    0.022683    0.000000
    0    0    0   51  195   -0.015254    0.000000
    0    0    0   52  195   -0.008141   -0.000000
    0    0    0   53  195    0.000093    0.000000
    0    0    0   54  195   -0.016190   -0.000000
    0    0    0   55  195    0.009013    0.000000
    0    0    0   56  195   -0.007427    0.000000
    0    0    0   57  195    0.007781    0.000000
    0    0    0   58  195   -0.026112    0.000000
    0    0    0   59  195   -0.024891    0.000000
    0    0    0   60  195   -0.032842   -0.000000
    0    0    0   61  195    0.016160   -0.000000
    0    0    0   62  195   -0.110478   -0.000000
    0    0    0   63  195   -0.086850    0.000000
    0    0    0   64  195   -0.052601   -0.000000
    0    0    0   65  195    0.045291   -0.000000
    0    0    0   66  195   -0.002002   -0.000000
    0    0    0   67  195   -0.002167    0.000000
    0    0    0   68  195    0.032946    0.000000
    0    0    0   69  195    0.019607   -0.000000
    0    0    0   70  195   -0.007791    0.000000
    0    0    0   71  195    0.000204    0.000000
    0    0    0   72  195    0.035824    0.000000
    0    0    0   73  195   -0.026188   -0.000000
    0    0    0   74  195    0.015236    0.000000
    0    0    0   75  195    0.032216    0.000000
    0    0    0   76  195    0.009084    0.000000
    0    0    0   77  195   -0.037896    0.000000
    0    0    0   78  195    0.045634    0.000000
    0    0    0   79  195    0.035031   -0.000000
    0    0    0   80  195    0.001722   -0.000000
    0    0    0   81  195   -0.045304    0.000000
    0    0    0   82  195   -0.095694   -0.000000
    0    0    0   83  195   -0.138403   -0.000000
    0    0    0   84  195    0.010747    0.000000
    0    0    0   85  195   -0.036468   -0.000000
    0    0    0   86  195    0.005170   -0.000000
    0    0    0   87  195    0.037695   -0.000000
    0    0    0   88  195   -0.007742    0.000000
    0    0    0   89  195   -0.027037   -0.000000
    0    0    0   90  195    0.013026    0.000000
    0    0    0   91  195    0.007658   -0.000000
    0    0    0   92  195   -0.047569   -0.000000
    0    0    0   93  195   -0.043696    0.000000
    0    0    0   94  195    0.007897    0.000000
    0    0    0   95  195   -0.004155    0.000000
    0    0    0   96  195    0.025924   -0.000000
    0    0    0   97  195    0.306771    0.000000
    0    0    0   98  195    0.197467   -0.000000
    0    0    0   99  195    0.057911    0.000000
    0    0    0  100  195   -0.014134   -0.000000
    0    0    0  101  195   -0.016230    0.000000
    0    0    0  102  195    0.024610   -0.000000
    0    0    0  103  195    0.024039   -0.000000
    0    0    0  104  195   -0.011707   -0.000000
    0    0    0  105  195   -0.007519    0.000000
    0    0    0  106  195   -0.017424   -0.000000
    0    0    0  107  195   -0.005625    0.000000
    0    0    0  108  195   -0.037464    0.000000
    0    0    0  109  195    0.019527   -0.000000
    0    0    0  110  195    0.005598   -0.000000
    0    0    0  111  195   -0.029643   -0.000000
    0    0    0  112  195    0.021403    0.000000
    0    0    0  113  195    0.003435   -0.000000
    0    0    0  114  195    0.019149   -0.000000
    0    0    0  115  195    0.008144    0.000000
    0    0    0  116  195    0.017955   -0.000000
    0    0    0  117  195    0.059375    0.000000
    0    0    0  118  195    0.069081    0.000000
    0    0    0  119  195   -0.004731   -0.000000
    0    0    0  120  195    0.003410    0.000000
    0    0    0  121  195    0.017764   -0.000000
    0    0    0  122  195    0.012798   -0.000000
    0    0    0  123  195   -0.033468    0.000000
    0    0    0  124  195   -0.011498    0.000000
    0    0    0  125  195   -0.084496    0.000000
    0    0    0  126  195    0.046645   -0.000000
    0    0    0  127  195   -0.181250   -0.000000
    0    0    0  128  195   -0.035937    0.000000
    0    0    0  129  195   -0.071735   -0.000000
    0    0    0  130  195   -0.026818   -0.000000
    0    0    0  131  195   -0.068361    0.000000
    0    0    0  132  195   -0.135371   -0.000000
    0    0    0  133  195    0.112567    0.000000
    0    0    0  134  195    0.053354   -0.000000
    0    0    0  135  195   -0.004563   -0.000000
    0    0    0  136  195    0.082313    0.000000
    0    0    0  137  195    0.029654    0.000000
    0    0    0  138  195    0.006601    0.000000
    0    0    0  139  195    0.028014    0.000000
    0    0    0  140  195   -0.000078   -0.000000
    0    0    0  141  195   -0.014273   -0.000000
    0    0    0  142  195   -0.011198    0.000000
    0    0    0  143  195    0.012041   -0.000000
    0    0    0  144  195   -0.012131   -0.000000
    0    0    0  145  195   -0.001964   -0.000000
    0    0    0  146  195   -0.046946    0.000000
    0    0    0  147  195   -0.018316   -0.000000
    0    0    0  148  195   -0.017199   -0.000000
    0    0    0  149  195   -0.100999   -0.000000
    0    0    0  150  195   -0.006550   -0.000000
    0    0    0  151  195   -0.122245    0.000000
    0    0    0  152  195   -0.390788    0.000000
    0    0    0  153  195   -0.014967    0.000000
    0    0    0  154  195    0.482717    0.000000
    0    0    0  155  195    0.053799    0.000000
    0    0    0  156  195    0.065804   -0.000000
    0    0    0  157  195   -0.037326    0.000000
    0    0    0  158  195   -0.189806   -0.000000
    0    0    0  159  195   -0.041665   -0.000000
    0    0    0  160  195   -0.088590    0.000000
    0    0    0  161  195   -0.000957    0.000000
    0    0    0  162  195    0.005954   -0.000000
    0    0    0  163  195   -0.016039    0.000000
    0    0    0  164  195    0.012896    0.000000
    0    0    0  165  195    0.007464   -0.000000
    0    0    0  166  195    0.025735   -0.000000
    0    0    0  167  195    0.003252    0.000000
    0    0    0  168  195    0.047612   -0.000000
    0    0    0  169  195    0.040835   -0.000000
    0    0    0  170  195   -0.031231   -0.000000
    0    0    0  171  195    0.052668   -0.000000
    0    0    0  172  195   -0.011124    0.000000
    0    0    0  173  195   -0.065612   -0.000000
    0    0    0  174  195   -0.053985    0.000000
    0    0    0  175  195    0.033122   -0.000000
    0    0    0  176  195   -0.483009    0.000000
    0    0    0  177  195    0.528884    0.000000
    0    0    0  178  195    0.341396    0.000000
    0    0    0  179  195   -0.044419   -0.000000
    0    0    0  180  195   -0.031381   -0.000000
    0    0    0  181  195   -0.068103   -0.000000
    0    0    0  182  195   -0.010948   -0.000000
    0    0    0  183  195    0.033022    0.000000
    0    0    0  184  195   -0.031262    0.000000
    0    0    0  185  195    0.000006   -0.000000
    0    0    0  186  195    0.008206    0.000000
    0    0    0  187  195    0.129110    0.000000
    0    0    0  188  195   -0.048422   -0.000000
    0    0    0  189  195   -0.005438   -0.000000
    0    0    0  190  195   -0.117007    0.000000
    0    0    0  191  195   -0.001887    0.000000
    0    0    0  192  195   -0.038659   -0.000000
    0    0    0  193  195   -0.009510   -0.000000
    0    0    0  194  195   -0.366874   -0.000000
    0    0    0  195  195    0.411838    0.000000
    0    0    0  196  195    0.167538   -0.000000
    0    0    0    1  196   -0.107331   -0.000000
    0    0    0    2  196   -0.624564   -0.000000
    0    0    0    3  196   -0.276845    0.000000
    0    0    0    4  196   -0.791081   -0.000000
    0    0    0    5  196    0.589714   -0.000000
    0    0    0    6  196    0.011797   -0.000000
    0    0    0    7  196    0.010040   -0.000000
    0    0    0    8  196    0.002737   -0.000000
    0    0    0    9  196    0.002742    0.000000
    0    0    0   10  196   -0.000282    0.000000
    0    0    0   11  196   -0.026170   -0.000000
    0    0    0   12  196   -0.015808   -0.000000
    0    0    0   13  196   -0.028072    0.000000
    0    0    0   14  196    0.053650    0.000000
    0    0    0   15  196    0.023753   -0.000000
    0    0    0   16  196   -0.782958   -0.000000
    0    0    0   17  196    1.514836   -0.000000
    0    0    0   18  196   -1.450672    0.000000
    0    0    0   19  196   -0.201933    0.000000
    0    0    0   20  196    0.258698   -0.000000
    0    0    0   21  196    0.001511   -0.000000
    0    0    0   22  196   -0.012942   -0.000000
    0    0    0   23  196   -0.039859    0.000000
    0    0    0   24  196    0.032390    0.000000
    0    0    0   25  196   -0.014690   -0.000000
    0    0    0   26  196    0.000203   -0.000000
    0    0    0   27  196   -0.006199   -0.000000
    0    0    0   28  196   -0.033324    0.000000
    0    0    0   29  196   -0.064505   -0.000000
    0    0    0   30  196   -0.062463   -0.000000
    0    0    0   31  196   -0.037965   -0.000000
    0    0    0   32  196    0.020944   -0.000000
    0    0    0   33  196    0.013061    0.000000
    0    0    0   34  196   -0.026376   -0.000000
    0    0    0   35  196    0.053705    0.000000
    0    0    0   36  196    0.009761   -0.000000
    0    0    0   37  196   -0.002331    0.000000
    0    0    0   38  196   -0.040805    0.000000
    0    0    0   39  196    0.035352   -0.000000
    0    0    0   40  196    0.022287   -0.000000
    0    0    0   41  196   -0.019083   -0.000000
    0    0    0   42  196   -0.007165   -0.000000
    0    0    0   43  196   -0.012869   -0.000000
    0    0    0   44  196   -0.042111   -0.000000
    0    0    0   45  196   -0.025330   -0.000000
    0    0    0   46  196    0.001116    0.000000
    0    0    0   47  196    0.024843   -0.000000
    0    0    0   48  196    0.038056    0.000000
    0    0    0   49  196    0.053919   -0.000000
    0    0    0   50  196    0.029131   -0.000000
    0    0    0   51  196   -0.029926    0.000000
    0    0    0   52  196   -0.009846    0.000000
    0    0    0   53  196   -0.011163   -0.000000
    0    0    0   54  196   -0.010916    0.000000
    0    0    0   55  196   -0.006249   -0.000000
    0    0    0   56  196    0.031550   -0.000000
    0    0    0   57  196   -0.024721   -0.000000
    0    0    0   58  196    0.051729   -0.000000
    0    0    0   59  196   -0.075054   -0.000000
    0    0    0   60  196   -0.125624    0.000000
    0    0    0   61  196   -0.210850    0.000000
    0    0    0   62  196   -0.216000    0.000000
    0    0    0   63  196    1.533781    0.000000
    0    0    0   64  196    0.467151    0.000000
    0    0    0   65  196   -0.369979   -0.000000
    0    0    0   66  196    0.015150    0.000000
    0    0    0   67  196    0.024941   -0.000000
    0    0    0   68  196    0.046894    0.000000
    0    0    0   69  196   -0.051730    0.000000
    0    0    0   70  196    0.164548    0.000000
    0    0    0   71  196    0.010515    0.000000
    0    0    0   72  196   -0.002860   -0.000000
    0    0    0   73  196   -0.000331   -0.000000
    0    0    0   74  196    0.017998   -0.000000
    0    0    0   75  196   -0.016522   -0.000000
    0    0    0   76  196    0.013810   -0.000000
    0    0    0   77  196    0.026416   -0.000000
    0    0    0   78  196   -0.001677   -0.000000
    0    0    0   79  196    0.013972   -0.000000
    0    0    0   80  196   -0.034118    0.000000
    0    0    0   81  196    0.390133    0.000000
    0    0    0   82  196   -0.528589    0.000000
    0    0    0   83  196   -0.142223   -0.000000
    0    0    0   84  196    0.678387   -0.000000
    0    0    0   85  196    0.401817    0.000000
    0    0    0   86  196   -0.011425   -0.000000
    0    0    0   87  196    0.004307    0.000000
    0    0    0   88  196    0.004412   -0.000000
    0    0    0   89  196   -0.025492   -0.000000
    0    0    0   90  196    0.033891   -0.000000
    0    0    0   91  196    0.012187    0.000000
    0    0    0   92  196    0.003983    0.000000
    0    0    0   93  196   -0.030317   -0.000000
    0    0    0   94  196   -0.121926    0.000000
    0    0    0   95  196    0.024320    0.000000
    0    0    0   96  196    0.489902    0.000000
    0    0    0   97  196    0.520823    0.000000
    0    0    0   98  196   -0.161163    0.000000
    0    0    0   99  196    0.744241    0.000000
    0    0    0  100  196   -0.465115    0.000000
    0    0    0  101  196   -0.021893   -0.000000
    0    0    0  102  196   -0.006013    0.000000
    0    0    0  103  196    0.005001    0.000000
    0    0    0  104  196   -0.005128    0.000000
    0    0    0  105  196   -0.071563   -0.000000
    0    0    0  106  196    0.112708   -0.000000
    0    0    0  107  196    0.005936    0.000000
    0    0    0  108  196    0.009953    0.000000
    0    0    0  109  196   -0.000108    0.000000
    0    0    0  110  196   -0.019156    0.000000
    0    0    0  111  196   -0.006005    0.000000
    0    0    0  112  196    0.001491    0.000000
    0    0    0  113  196   -0.014563    0.000000
    0    0    0  114  196   -0.009163    0.000000
    0    0    0  115  196    0.003319   -0.000000
    0    0    0  116  196    0.016393   -0.000000
    0    0    0  117  196    0.064148    0.000000
    0    0    0  118  196    0.105260    0.000000
    0    0    0  119  196   -0.034737    0.000000
    0    0    0  120  196    0.005185   -0.000000
    0    0    0  121  196    0.001354    0.000000
    0    0    0  122  196    0.020753    0.000000
    0    0    0  123  196    0.003934   -0.000000
    0    0    0  124  196   -0.005924   -0.000000
    0    0    0  125  196    0.074818   -0.000000
    0    0    0  126  196   -0.054346   -0.000000
    0    0    0  127  196   -0.002143   -0.000000
    0    0    0  128  196    0.078863    0.000000
    0    0    0  129  196    0.285970    0.000000
    0    0    0  130  196    0.596166   -0.000000
    0    0    0  131  196   -0.067406   -0.000000
    0    0    0  132  196   -0.089754    0.000000
    0    0    0  133  196    0.107594   -0.000000
    0    0    0  134  196    0.092081    0.000000
    0    0    0  135  196    0.186986    0.000000
    0    0    0  136  196   -0.009271   -0.000000
    0    0    0  137  196    0.038891    0.000000
    0    0    0  138  196    0.021226   -0.000000
    0    0    0  139  196    0.007244   -0.000000
    0    0    0  140  196    0.026892    0.000000
    0    0    0  141  196   -0.015578   -0.000000
    0    0    0  142  196   -0.046110    0.000000
    0    0    0  143  196    0.033133    0.000000
    0    0    0  144  196   -0.006162   -0.000000
    0    0    0  145  196    0.008339    0.000000
    0    0    0  146  196    0.010256   -0.000000
    0    0    0  147  196    0.007454    0.000000
    0    0    0  148  196   -0.020949   -0.000000
    0    0    0  149  196   -0.024887    0.000000
    0    0    0  150  196   -0.057480   -0.000000
    0    0    0  151  196    0.056045   -0.000000
    0    0    0  152  196    0.225101    0.000000
    0    0    0  153  196    0.172279   -0.000000
    0    0    0  154  196    0.388329    0.000000
    0    0    0  155  196   -0.037039   -0.000000
    0    0    0  156  196    0.045225    0.000000
    0    0    0  157  196    0.028457    0.000000
    0    0    0  158  196   -0.156636    0.000000
    0    0    0  159  196   -0.316268    0.000000
    0    0    0  160  196    0.484340    0.000000
    0    0    0  161  196    0.002986   -0.000000
    0    0    0  162  196    0.018825    0.000000
    0    0    0  163  196   -0.008150   -0.000000
    0    0    0  164  196   -0.018523   -0.000000
    0    0    0  165  196    0.008505    0.000000
    0    0    0  166  196    0.009847    0.000000
    0    0    0  167  196    0.016448   -0.000000
    0    0    0  168  196   -0.011658    0.000000
    0    0    0  169  196    0.011316    0.000000
    0    0    0  170  196   -0.000375    0.000000
    0    0    0  171  196    0.016181   -0.000000
    0    0    0  172  196   -0.001163   -0.000000
    0    0    0  173  196   -0.075183    0.000000
    0    0    0  174  196    0.051803   -0.000000
    0    0    0  175  196    0.094836   -0.000000
    0    0    0  176  196   -0.006763   -0.000000
    0    0    0  177  196   -0.056366   -0.000000
    0    0    0  178  196    0.007788   -0.000000
    0    0    0  179  196    0.003556    0.000000
    0    0    0  180  196   -0.009512    0.000000
    0    0    0  181  196    0.000975   -0.000000
    0    0    0  182  196    0.004074    0.000000
    0    0    0  183  196   -0.020081    0.000000
    0    0    0  184  196    0.005953   -0.000000
    0    0    0  185  196    0.063890    0.000000
    0    0    0  186  196    0.036716    0.000000
    0    0    0  187  196   -0.019393    0.000000
    0    0    0  188  196    0.010241    0.000000
    0    0    0  189  196   -0.273831    0.000000
    0    0    0  190  196    0.457561   -0.000000
    0    0    0  191  196   -0.442312   -0.000000
    0    0    0  192  196   -0.013860    0.000000
    0    0    0  193  196   -0.219576   -0.000000
    0    0    0  194  196    0.807257    0.000000
    0    0    0  195  196    0.167538    0.000000
    0    0    0  196  196   -3.644457    0.000000
