
     Program PWSCF v.6.8 starts on  8Sep2023 at 12:35:52 

     This program is part of the open-source Quantum ESPRESSO suite
     for quantum simulation of materials; please cite
         "P. Giannozzi et al., J. Phys.:Condens. Matter 21 395502 (2009);
         "P. Giannozzi et al., J. Phys.:Condens. Matter 29 465901 (2017);
         "P. Giannozzi et al., J. Chem. Phys. 152 154105 (2020);
          URL http://www.quantum-espresso.org", 
     in publications or presentations arising from this work. More details at
     http://www.quantum-espresso.org/quote

     Parallel version (MPI & OpenMP), running on      80 processor cores
     Number of MPI processes:                80
     Threads/MPI process:                     1

     MPI processes distributed on     2 nodes
     R & G space division:  proc/nbgrp/npool/nimage =      80
     180952 MiB available memory on the printing compute node when the environment starts
 
     Reading input from 1Fe_initialconf.scf.in

     Current dimensions of program PWSCF are:
     Max number of different atomic species (ntypx) = 10
     Max number of k-points (npk) =  40000
     Max angular momentum in pseudopotentials (lmaxx) =  4
     file Nb.rel-pbe-spn-kjpaw_psl.1.0.0.UPF: wavefunction(s)  4S 4P 4P 4D renormalized
     file Se.rel-pbe-n-kjpaw_psl.1.0.0.UPF: wavefunction(s)  4S renormalized

     Fixed quantization axis for GGA:     0.000000    0.000000    1.000000
     Found symmetry operation: I + (  0.2500  0.0000  0.0000)
     This is a supercell, fractional translations are disabled

     Subspace diagonalization in iterative solution of the eigenvalue problem:
     one sub-group per band group will be used
     scalapack distributed-memory algorithm (size of sub-group:  8*  8 procs)

 
     Parallelization info
     --------------------
     sticks:   dense  smooth     PW     G-vecs:    dense   smooth      PW
     Min         350     174     45                81406    28766    3799
     Max         351     175     46                81421    28783    3810
     Sum       28063   13999   3643              6513055  2302489  304271
 
     Using Slab Decomposition
 


     bravais-lattice index     =            4
     lattice parameter (alat)  =      26.0483  a.u.
     unit-cell volume          =   26240.8884 (a.u.)^3
     number of atoms/cell      =           48
     number of atomic types    =            2
     number of electrons       =       400.00
     number of Kohn-Sham states=          480
     kinetic-energy cutoff     =      75.0000  Ry
     charge density cutoff     =     600.0000  Ry
     scf convergence threshold =      1.0E-07
     mixing beta               =       0.7000
     number of iterations used =            8  local-TF  mixing
     Exchange-correlation= SLA  PW   PBX  PBC
                           (   1   4   3   4   0   0   0)
     Noncollinear calculation with spin-orbit


     celldm(1)=  26.048308  celldm(2)=   0.000000  celldm(3)=   1.714389
     celldm(4)=   0.000000  celldm(5)=   0.000000  celldm(6)=   0.000000

     crystal axes: (cart. coord. in units of alat)
               a(1) = (   1.000000   0.000000   0.000000 )  
               a(2) = (  -0.500000   0.866025   0.000000 )  
               a(3) = (   0.000000   0.000000   1.714389 )  

     reciprocal axes: (cart. coord. in units 2 pi/alat)
               b(1) = (  1.000000  0.577350  0.000000 )  
               b(2) = (  0.000000  1.154701  0.000000 )  
               b(3) = (  0.000000  0.000000  0.583298 )  


     PseudoPot. # 1 for Nb read from file:
     /ptmp/jojaibal/YSR_Project/Nb.rel-pbe-spn-kjpaw_psl.1.0.0.UPF
     MD5 check sum: 3a09181fbf459c127d6f02d34c424d18
     Pseudo is Projector augmented-wave + core cor, Zval = 13.0
     Generated using &quot;atomic&quot; code by A. Dal Corso  v.6.2.2
     Shape of augmentation charge: PSQ
     Using radial grid of 1227 points, 10 beta functions with: 
                l(1) =   0
                l(2) =   0
                l(3) =   1
                l(4) =   1
                l(5) =   1
                l(6) =   1
                l(7) =   2
                l(8) =   2
                l(9) =   2
               l(10) =   2
     Q(r) pseudized with 0 coefficients 


     PseudoPot. # 2 for Se read from file:
     /ptmp/jojaibal/YSR_Project/Se.rel-pbe-n-kjpaw_psl.1.0.0.UPF
     MD5 check sum: 0e5d458a32c82988ec228b3b76c99930
     Pseudo is Projector augmented-wave + core cor, Zval =  6.0
     Generated using &quot;atomic&quot; code by A. Dal Corso  v.6.3
     Shape of augmentation charge: PSQ
     Using radial grid of 1211 points,  6 beta functions with: 
                l(1) =   0
                l(2) =   0
                l(3) =   1
                l(4) =   1
                l(5) =   1
                l(6) =   1
     Q(r) pseudized with 0 coefficients 


     atomic species   valence    mass     pseudopotential
        Nb            13.00    92.90638     Nb( 1.00)
        Se             6.00    78.96000     Se( 1.00)


     Full LDA+U calculation (l_max = 2) with parameters (eV):
     U(  1) =   7.5681   J(  1) =   0.0000   B(  1) =   0.0000
     LDA+U on averaged j=l+1/2,l-1/2 radial WFs



      6 Sym. Ops. (no inversion) found



   Cartesian axes

     site n.     atom                  positions (alat units)
         1           Nb  tau(   1) = (   0.0000000   0.0000000   0.1216723  )
         2           Se  tau(   2) = (   0.1250000   0.0721688   0.0000000  )
         3           Se  tau(   3) = (   0.1250000   0.0721688   0.2433446  )
         4           Nb  tau(   4) = (   0.2500000   0.0000000   0.1216723  )
         5           Se  tau(   5) = (   0.3750000   0.0721688   0.0000000  )
         6           Se  tau(   6) = (   0.3750000   0.0721688   0.2433446  )
         7           Nb  tau(   7) = (   0.5000000   0.0000000   0.1216723  )
         8           Se  tau(   8) = (   0.6250000   0.0721688   0.0000000  )
         9           Se  tau(   9) = (   0.6250000   0.0721688   0.2433446  )
        10           Nb  tau(  10) = (   0.7500000   0.0000000   0.1216723  )
        11           Se  tau(  11) = (   0.8750000   0.0721688   0.0000000  )
        12           Se  tau(  12) = (   0.8750000   0.0721688   0.2433446  )
        13           Nb  tau(  13) = (   0.6250000   0.2165064   0.1216723  )
        14           Se  tau(  14) = (   0.7500000   0.2886751   0.0000000  )
        15           Se  tau(  15) = (   0.7500000   0.2886751   0.2433446  )
        16           Nb  tau(  16) = (   0.5000000   0.4330127   0.1216723  )
        17           Se  tau(  17) = (   0.6250000   0.5051815   0.0000000  )
        18           Se  tau(  18) = (   0.6250000   0.5051815   0.2433446  )
        19           Nb  tau(  19) = (   0.3750000   0.6495191   0.1216723  )
        20           Se  tau(  20) = (   0.5000000   0.7216878   0.0000000  )
        21           Se  tau(  21) = (   0.5000000   0.7216878   0.2433446  )
        22           Nb  tau(  22) = (   0.1250000   0.6495191   0.1216723  )
        23           Se  tau(  23) = (   0.2500000   0.7216878   0.0000000  )
        24           Se  tau(  24) = (   0.2500000   0.7216878   0.2433446  )
        25           Nb  tau(  25) = (  -0.1250000   0.6495191   0.1216723  )
        26           Se  tau(  26) = (   0.0000000   0.7216878   0.0000000  )
        27           Se  tau(  27) = (   0.0000000   0.7216878   0.2433446  )
        28           Nb  tau(  28) = (  -0.3750000   0.6495191   0.1216723  )
        29           Se  tau(  29) = (  -0.2500000   0.7216878   0.0000000  )
        30           Se  tau(  30) = (  -0.2500000   0.7216878   0.2433446  )
        31           Nb  tau(  31) = (   0.3750000   0.2165064   0.1216723  )
        32           Se  tau(  32) = (   0.5000000   0.2886751   0.0000000  )
        33           Se  tau(  33) = (   0.5000000   0.2886751   0.2433446  )
        34           Nb  tau(  34) = (   0.2500000   0.4330127   0.1216723  )
        35           Se  tau(  35) = (   0.3750000   0.5051815   0.0000000  )
        36           Se  tau(  36) = (   0.3750000   0.5051815   0.2433446  )
        37           Nb  tau(  37) = (   0.0000000   0.4330127   0.1216723  )
        38           Se  tau(  38) = (   0.1250000   0.5051815   0.0000000  )
        39           Se  tau(  39) = (   0.1250000   0.5051815   0.2433446  )
        40           Nb  tau(  40) = (   0.1250000   0.2165064   0.1216723  )
        41           Se  tau(  41) = (   0.2500000   0.2886751   0.0000000  )
        42           Se  tau(  42) = (   0.2500000   0.2886751   0.2433446  )
        43           Nb  tau(  43) = (  -0.1250000   0.2165064   0.1216723  )
        44           Se  tau(  44) = (   0.0000000   0.2886751   0.0000000  )
        45           Se  tau(  45) = (   0.0000000   0.2886751   0.2433446  )
        46           Nb  tau(  46) = (  -0.2500000   0.4330127   0.1216723  )
        47           Se  tau(  47) = (  -0.1250000   0.5051815   0.0000000  )
        48           Se  tau(  48) = (  -0.1250000   0.5051815   0.2433446  )

     number of k points=    10  Methfessel-Paxton smearing, width (Ry)=  0.0200
                       cart. coord. in units 2pi/alat
        k(    1) = (   0.0000000   0.0000000   0.0000000), wk =   0.0277778
        k(    2) = (   0.0000000   0.1924501   0.0000000), wk =   0.1666667
        k(    3) = (   0.0000000   0.3849002   0.0000000), wk =   0.1666667
        k(    4) = (   0.0000000  -0.5773503   0.0000000), wk =   0.0833333
        k(    5) = (   0.1666667   0.2886751   0.0000000), wk =   0.0833333
        k(    6) = (   0.1666667   0.4811252   0.0000000), wk =   0.1666667
        k(    7) = (   0.3333333   0.5773503   0.0000000), wk =   0.0277778
        k(    8) = (  -0.1666667   0.2886751   0.0000000), wk =   0.0833333
        k(    9) = (  -0.1666667   0.4811252   0.0000000), wk =   0.1666667
        k(   10) = (  -0.3333333   0.5773503   0.0000000), wk =   0.0277778

     Dense  grid:  6513055 G-vectors     FFT dimensions: ( 216, 216, 360)

     Smooth grid:  2302489 G-vectors     FFT dimensions: ( 144, 144, 250)

     Estimated max dynamical RAM per process >       1.75 GB

     Estimated total dynamical RAM >     140.00 GB
     Generating pointlists ...
     new r_m :   0.0779 (alat units)  2.0284 (a.u.) for type    1
     new r_m :   0.0779 (alat units)  2.0284 (a.u.) for type    2

     Initial potential from superposition of free atoms

     starting charge  399.97636, renormalised to  400.00000

     negative rho (up, down):  2.636E-03 1.986E-02
     Number of +U iterations with fixed ns =  0
     Starting occupations:
 --- enter write_ns ---
 LDA+U parameters:
U(  1) =   7.5681   J(  1) =   0.0000   B(  1) =   0.0000
atom    1   Tr[ns(na)] (up, down, total) =   3.00000  0.00000  3.00000
 eigenvalues: 
  0.000  0.000  0.000  0.000  0.000  0.600  0.600  0.600  0.600  0.600
 eigenvectors:
  0.000  0.000  0.000  0.000  0.000  1.000  0.000  0.000  0.000  0.000
  0.000  0.000  0.000  0.000  0.000  0.000  1.000  0.000  0.000  0.000
  0.000  0.000  0.000  0.000  0.000  0.000  0.000  1.000  0.000  0.000
  0.000  0.000  0.000  0.000  0.000  0.000  0.000  0.000  1.000  0.000
  0.000  0.000  0.000  0.000  0.000  0.000  0.000  0.000  0.000  1.000
  1.000  0.000  0.000  0.000  0.000  0.000  0.000  0.000  0.000  0.000
  0.000  1.000  0.000  0.000  0.000  0.000  0.000  0.000  0.000  0.000
  0.000  0.000  1.000  0.000  0.000  0.000  0.000  0.000  0.000  0.000
  0.000  0.000  0.000  1.000  0.000  0.000  0.000  0.000  0.000  0.000
  0.000  0.000  0.000  0.000  1.000  0.000  0.000  0.000  0.000  0.000
 occupations, | n_(i1, i2)^(sigma1, sigma2) |:
  0.600  0.000  0.000  0.000  0.000  0.000  0.000  0.000  0.000  0.000
  0.000  0.600  0.000  0.000  0.000  0.000  0.000  0.000  0.000  0.000
  0.000  0.000  0.600  0.000  0.000  0.000  0.000  0.000  0.000  0.000
  0.000  0.000  0.000  0.600  0.000  0.000  0.000  0.000  0.000  0.000
  0.000  0.000  0.000  0.000  0.600  0.000  0.000  0.000  0.000  0.000
  0.000  0.000  0.000  0.000  0.000  0.000  0.000  0.000  0.000  0.000
  0.000  0.000  0.000  0.000  0.000  0.000  0.000  0.000  0.000  0.000
  0.000  0.000  0.000  0.000  0.000  0.000  0.000  0.000  0.000  0.000
  0.000  0.000  0.000  0.000  0.000  0.000  0.000  0.000  0.000  0.000
  0.000  0.000  0.000  0.000  0.000  0.000  0.000  0.000  0.000  0.000
atomic mx, my, mz =     0.000000    0.000000    3.000000
atom    4   Tr[ns(na)] (up, down, total) =   3.00000  0.00000  3.00000
 eigenvalues: 
  0.000  0.000  0.000  0.000  0.000  0.600  0.600  0.600  0.600  0.600
 eigenvectors:
  0.000  0.000  0.000  0.000  0.000  1.000  0.000  0.000  0.000  0.000
  0.000  0.000  0.000  0.000  0.000  0.000  1.000  0.000  0.000  0.000
  0.000  0.000  0.000  0.000  0.000  0.000  0.000  1.000  0.000  0.000
  0.000  0.000  0.000  0.000  0.000  0.000  0.000  0.000  1.000  0.000
  0.000  0.000  0.000  0.000  0.000  0.000  0.000  0.000  0.000  1.000
  1.000  0.000  0.000  0.000  0.000  0.000  0.000  0.000  0.000  0.000
  0.000  1.000  0.000  0.000  0.000  0.000  0.000  0.000  0.000  0.000
  0.000  0.000  1.000  0.000  0.000  0.000  0.000  0.000  0.000  0.000
  0.000  0.000  0.000  1.000  0.000  0.000  0.000  0.000  0.000  0.000
  0.000  0.000  0.000  0.000  1.000  0.000  0.000  0.000  0.000  0.000
 occupations, | n_(i1, i2)^(sigma1, sigma2) |:
  0.600  0.000  0.000  0.000  0.000  0.000  0.000  0.000  0.000  0.000
  0.000  0.600  0.000  0.000  0.000  0.000  0.000  0.000  0.000  0.000
  0.000  0.000  0.600  0.000  0.000  0.000  0.000  0.000  0.000  0.000
  0.000  0.000  0.000  0.600  0.000  0.000  0.000  0.000  0.000  0.000
  0.000  0.000  0.000  0.000  0.600  0.000  0.000  0.000  0.000  0.000
  0.000  0.000  0.000  0.000  0.000  0.000  0.000  0.000  0.000  0.000
  0.000  0.000  0.000  0.000  0.000  0.000  0.000  0.000  0.000  0.000
  0.000  0.000  0.000  0.000  0.000  0.000  0.000  0.000  0.000  0.000
  0.000  0.000  0.000  0.000  0.000  0.000  0.000  0.000  0.000  0.000
  0.000  0.000  0.000  0.000  0.000  0.000  0.000  0.000  0.000  0.000
atomic mx, my, mz =     0.000000    0.000000    3.000000
atom    7   Tr[ns(na)] (up, down, total) =   3.00000  0.00000  3.00000
 eigenvalues: 
  0.000  0.000  0.000  0.000  0.000  0.600  0.600  0.600  0.600  0.600
 eigenvectors:
  0.000  0.000  0.000  0.000  0.000  1.000  0.000  0.000  0.000  0.000
  0.000  0.000  0.000  0.000  0.000  0.000  1.000  0.000  0.000  0.000
  0.000  0.000  0.000  0.000  0.000  0.000  0.000  1.000  0.000  0.000
  0.000  0.000  0.000  0.000  0.000  0.000  0.000  0.000  1.000  0.000
  0.000  0.000  0.000  0.000  0.000  0.000  0.000  0.000  0.000  1.000
  1.000  0.000  0.000  0.000  0.000  0.000  0.000  0.000  0.000  0.000
  0.000  1.000  0.000  0.000  0.000  0.000  0.000  0.000  0.000  0.000
  0.000  0.000  1.000  0.000  0.000  0.000  0.000  0.000  0.000  0.000
  0.000  0.000  0.000  1.000  0.000  0.000  0.000  0.000  0.000  0.000
  0.000  0.000  0.000  0.000  1.000  0.000  0.000  0.000  0.000  0.000
 occupations, | n_(i1, i2)^(sigma1, sigma2) |:
  0.600  0.000  0.000  0.000  0.000  0.000  0.000  0.000  0.000  0.000
  0.000  0.600  0.000  0.000  0.000  0.000  0.000  0.000  0.000  0.000
  0.000  0.000  0.600  0.000  0.000  0.000  0.000  0.000  0.000  0.000
  0.000  0.000  0.000  0.600  0.000  0.000  0.000  0.000  0.000  0.000
  0.000  0.000  0.000  0.000  0.600  0.000  0.000  0.000  0.000  0.000
  0.000  0.000  0.000  0.000  0.000  0.000  0.000  0.000  0.000  0.000
  0.000  0.000  0.000  0.000  0.000  0.000  0.000  0.000  0.000  0.000
  0.000  0.000  0.000  0.000  0.000  0.000  0.000  0.000  0.000  0.000
  0.000  0.000  0.000  0.000  0.000  0.000  0.000  0.000  0.000  0.000
  0.000  0.000  0.000  0.000  0.000  0.000  0.000  0.000  0.000  0.000
atomic mx, my, mz =     0.000000    0.000000    3.000000
atom   10   Tr[ns(na)] (up, down, total) =   3.00000  0.00000  3.00000
 eigenvalues: 
  0.000  0.000  0.000  0.000  0.000  0.600  0.600  0.600  0.600  0.600
 eigenvectors:
  0.000  0.000  0.000  0.000  0.000  1.000  0.000  0.000  0.000  0.000
  0.000  0.000  0.000  0.000  0.000  0.000  1.000  0.000  0.000  0.000
  0.000  0.000  0.000  0.000  0.000  0.000  0.000  1.000  0.000  0.000
  0.000  0.000  0.000  0.000  0.000  0.000  0.000  0.000  1.000  0.000
  0.000  0.000  0.000  0.000  0.000  0.000  0.000  0.000  0.000  1.000
  1.000  0.000  0.000  0.000  0.000  0.000  0.000  0.000  0.000  0.000
  0.000  1.000  0.000  0.000  0.000  0.000  0.000  0.000  0.000  0.000
  0.000  0.000  1.000  0.000  0.000  0.000  0.000  0.000  0.000  0.000
  0.000  0.000  0.000  1.000  0.000  0.000  0.000  0.000  0.000  0.000
  0.000  0.000  0.000  0.000  1.000  0.000  0.000  0.000  0.000  0.000
 occupations, | n_(i1, i2)^(sigma1, sigma2) |:
  0.600  0.000  0.000  0.000  0.000  0.000  0.000  0.000  0.000  0.000
  0.000  0.600  0.000  0.000  0.000  0.000  0.000  0.000  0.000  0.000
  0.000  0.000  0.600  0.000  0.000  0.000  0.000  0.000  0.000  0.000
  0.000  0.000  0.000  0.600  0.000  0.000  0.000  0.000  0.000  0.000
  0.000  0.000  0.000  0.000  0.600  0.000  0.000  0.000  0.000  0.000
  0.000  0.000  0.000  0.000  0.000  0.000  0.000  0.000  0.000  0.000
  0.000  0.000  0.000  0.000  0.000  0.000  0.000  0.000  0.000  0.000
  0.000  0.000  0.000  0.000  0.000  0.000  0.000  0.000  0.000  0.000
  0.000  0.000  0.000  0.000  0.000  0.000  0.000  0.000  0.000  0.000
  0.000  0.000  0.000  0.000  0.000  0.000  0.000  0.000  0.000  0.000
atomic mx, my, mz =     0.000000    0.000000    3.000000
atom   13   Tr[ns(na)] (up, down, total) =   3.00000  0.00000  3.00000
 eigenvalues: 
  0.000  0.000  0.000  0.000  0.000  0.600  0.600  0.600  0.600  0.600
 eigenvectors:
  0.000  0.000  0.000  0.000  0.000  1.000  0.000  0.000  0.000  0.000
  0.000  0.000  0.000  0.000  0.000  0.000  1.000  0.000  0.000  0.000
  0.000  0.000  0.000  0.000  0.000  0.000  0.000  1.000  0.000  0.000
  0.000  0.000  0.000  0.000  0.000  0.000  0.000  0.000  1.000  0.000
  0.000  0.000  0.000  0.000  0.000  0.000  0.000  0.000  0.000  1.000
  1.000  0.000  0.000  0.000  0.000  0.000  0.000  0.000  0.000  0.000
  0.000  1.000  0.000  0.000  0.000  0.000  0.000  0.000  0.000  0.000
  0.000  0.000  1.000  0.000  0.000  0.000  0.000  0.000  0.000  0.000
  0.000  0.000  0.000  1.000  0.000  0.000  0.000  0.000  0.000  0.000
  0.000  0.000  0.000  0.000  1.000  0.000  0.000  0.000  0.000  0.000
 occupations, | n_(i1, i2)^(sigma1, sigma2) |:
  0.600  0.000  0.000  0.000  0.000  0.000  0.000  0.000  0.000  0.000
  0.000  0.600  0.000  0.000  0.000  0.000  0.000  0.000  0.000  0.000
  0.000  0.000  0.600  0.000  0.000  0.000  0.000  0.000  0.000  0.000
  0.000  0.000  0.000  0.600  0.000  0.000  0.000  0.000  0.000  0.000
  0.000  0.000  0.000  0.000  0.600  0.000  0.000  0.000  0.000  0.000
  0.000  0.000  0.000  0.000  0.000  0.000  0.000  0.000  0.000  0.000
  0.000  0.000  0.000  0.000  0.000  0.000  0.000  0.000  0.000  0.000
  0.000  0.000  0.000  0.000  0.000  0.000  0.000  0.000  0.000  0.000
  0.000  0.000  0.000  0.000  0.000  0.000  0.000  0.000  0.000  0.000
  0.000  0.000  0.000  0.000  0.000  0.000  0.000  0.000  0.000  0.000
atomic mx, my, mz =     0.000000    0.000000    3.000000
atom   16   Tr[ns(na)] (up, down, total) =   3.00000  0.00000  3.00000
 eigenvalues: 
  0.000  0.000  0.000  0.000  0.000  0.600  0.600  0.600  0.600  0.600
 eigenvectors:
  0.000  0.000  0.000  0.000  0.000  1.000  0.000  0.000  0.000  0.000
  0.000  0.000  0.000  0.000  0.000  0.000  1.000  0.000  0.000  0.000
  0.000  0.000  0.000  0.000  0.000  0.000  0.000  1.000  0.000  0.000
  0.000  0.000  0.000  0.000  0.000  0.000  0.000  0.000  1.000  0.000
  0.000  0.000  0.000  0.000  0.000  0.000  0.000  0.000  0.000  1.000
  1.000  0.000  0.000  0.000  0.000  0.000  0.000  0.000  0.000  0.000
  0.000  1.000  0.000  0.000  0.000  0.000  0.000  0.000  0.000  0.000
  0.000  0.000  1.000  0.000  0.000  0.000  0.000  0.000  0.000  0.000
  0.000  0.000  0.000  1.000  0.000  0.000  0.000  0.000  0.000  0.000
  0.000  0.000  0.000  0.000  1.000  0.000  0.000  0.000  0.000  0.000
 occupations, | n_(i1, i2)^(sigma1, sigma2) |:
  0.600  0.000  0.000  0.000  0.000  0.000  0.000  0.000  0.000  0.000
  0.000  0.600  0.000  0.000  0.000  0.000  0.000  0.000  0.000  0.000
  0.000  0.000  0.600  0.000  0.000  0.000  0.000  0.000  0.000  0.000
  0.000  0.000  0.000  0.600  0.000  0.000  0.000  0.000  0.000  0.000
  0.000  0.000  0.000  0.000  0.600  0.000  0.000  0.000  0.000  0.000
  0.000  0.000  0.000  0.000  0.000  0.000  0.000  0.000  0.000  0.000
  0.000  0.000  0.000  0.000  0.000  0.000  0.000  0.000  0.000  0.000
  0.000  0.000  0.000  0.000  0.000  0.000  0.000  0.000  0.000  0.000
  0.000  0.000  0.000  0.000  0.000  0.000  0.000  0.000  0.000  0.000
  0.000  0.000  0.000  0.000  0.000  0.000  0.000  0.000  0.000  0.000
atomic mx, my, mz =     0.000000    0.000000    3.000000
atom   19   Tr[ns(na)] (up, down, total) =   3.00000  0.00000  3.00000
 eigenvalues: 
  0.000  0.000  0.000  0.000  0.000  0.600  0.600  0.600  0.600  0.600
 eigenvectors:
  0.000  0.000  0.000  0.000  0.000  1.000  0.000  0.000  0.000  0.000
  0.000  0.000  0.000  0.000  0.000  0.000  1.000  0.000  0.000  0.000
  0.000  0.000  0.000  0.000  0.000  0.000  0.000  1.000  0.000  0.000
  0.000  0.000  0.000  0.000  0.000  0.000  0.000  0.000  1.000  0.000
  0.000  0.000  0.000  0.000  0.000  0.000  0.000  0.000  0.000  1.000
  1.000  0.000  0.000  0.000  0.000  0.000  0.000  0.000  0.000  0.000
  0.000  1.000  0.000  0.000  0.000  0.000  0.000  0.000  0.000  0.000
  0.000  0.000  1.000  0.000  0.000  0.000  0.000  0.000  0.000  0.000
  0.000  0.000  0.000  1.000  0.000  0.000  0.000  0.000  0.000  0.000
  0.000  0.000  0.000  0.000  1.000  0.000  0.000  0.000  0.000  0.000
 occupations, | n_(i1, i2)^(sigma1, sigma2) |:
  0.600  0.000  0.000  0.000  0.000  0.000  0.000  0.000  0.000  0.000
  0.000  0.600  0.000  0.000  0.000  0.000  0.000  0.000  0.000  0.000
  0.000  0.000  0.600  0.000  0.000  0.000  0.000  0.000  0.000  0.000
  0.000  0.000  0.000  0.600  0.000  0.000  0.000  0.000  0.000  0.000
  0.000  0.000  0.000  0.000  0.600  0.000  0.000  0.000  0.000  0.000
  0.000  0.000  0.000  0.000  0.000  0.000  0.000  0.000  0.000  0.000
  0.000  0.000  0.000  0.000  0.000  0.000  0.000  0.000  0.000  0.000
  0.000  0.000  0.000  0.000  0.000  0.000  0.000  0.000  0.000  0.000
  0.000  0.000  0.000  0.000  0.000  0.000  0.000  0.000  0.000  0.000
  0.000  0.000  0.000  0.000  0.000  0.000  0.000  0.000  0.000  0.000
atomic mx, my, mz =     0.000000    0.000000    3.000000
atom   22   Tr[ns(na)] (up, down, total) =   3.00000  0.00000  3.00000
 eigenvalues: 
  0.000  0.000  0.000  0.000  0.000  0.600  0.600  0.600  0.600  0.600
 eigenvectors:
  0.000  0.000  0.000  0.000  0.000  1.000  0.000  0.000  0.000  0.000
  0.000  0.000  0.000  0.000  0.000  0.000  1.000  0.000  0.000  0.000
  0.000  0.000  0.000  0.000  0.000  0.000  0.000  1.000  0.000  0.000
  0.000  0.000  0.000  0.000  0.000  0.000  0.000  0.000  1.000  0.000
  0.000  0.000  0.000  0.000  0.000  0.000  0.000  0.000  0.000  1.000
  1.000  0.000  0.000  0.000  0.000  0.000  0.000  0.000  0.000  0.000
  0.000  1.000  0.000  0.000  0.000  0.000  0.000  0.000  0.000  0.000
  0.000  0.000  1.000  0.000  0.000  0.000  0.000  0.000  0.000  0.000
  0.000  0.000  0.000  1.000  0.000  0.000  0.000  0.000  0.000  0.000
  0.000  0.000  0.000  0.000  1.000  0.000  0.000  0.000  0.000  0.000
 occupations, | n_(i1, i2)^(sigma1, sigma2) |:
  0.600  0.000  0.000  0.000  0.000  0.000  0.000  0.000  0.000  0.000
  0.000  0.600  0.000  0.000  0.000  0.000  0.000  0.000  0.000  0.000
  0.000  0.000  0.600  0.000  0.000  0.000  0.000  0.000  0.000  0.000
  0.000  0.000  0.000  0.600  0.000  0.000  0.000  0.000  0.000  0.000
  0.000  0.000  0.000  0.000  0.600  0.000  0.000  0.000  0.000  0.000
  0.000  0.000  0.000  0.000  0.000  0.000  0.000  0.000  0.000  0.000
  0.000  0.000  0.000  0.000  0.000  0.000  0.000  0.000  0.000  0.000
  0.000  0.000  0.000  0.000  0.000  0.000  0.000  0.000  0.000  0.000
  0.000  0.000  0.000  0.000  0.000  0.000  0.000  0.000  0.000  0.000
  0.000  0.000  0.000  0.000  0.000  0.000  0.000  0.000  0.000  0.000
atomic mx, my, mz =     0.000000    0.000000    3.000000
atom   25   Tr[ns(na)] (up, down, total) =   3.00000  0.00000  3.00000
 eigenvalues: 
  0.000  0.000  0.000  0.000  0.000  0.600  0.600  0.600  0.600  0.600
 eigenvectors:
  0.000  0.000  0.000  0.000  0.000  1.000  0.000  0.000  0.000  0.000
  0.000  0.000  0.000  0.000  0.000  0.000  1.000  0.000  0.000  0.000
  0.000  0.000  0.000  0.000  0.000  0.000  0.000  1.000  0.000  0.000
  0.000  0.000  0.000  0.000  0.000  0.000  0.000  0.000  1.000  0.000
  0.000  0.000  0.000  0.000  0.000  0.000  0.000  0.000  0.000  1.000
  1.000  0.000  0.000  0.000  0.000  0.000  0.000  0.000  0.000  0.000
  0.000  1.000  0.000  0.000  0.000  0.000  0.000  0.000  0.000  0.000
  0.000  0.000  1.000  0.000  0.000  0.000  0.000  0.000  0.000  0.000
  0.000  0.000  0.000  1.000  0.000  0.000  0.000  0.000  0.000  0.000
  0.000  0.000  0.000  0.000  1.000  0.000  0.000  0.000  0.000  0.000
 occupations, | n_(i1, i2)^(sigma1, sigma2) |:
  0.600  0.000  0.000  0.000  0.000  0.000  0.000  0.000  0.000  0.000
  0.000  0.600  0.000  0.000  0.000  0.000  0.000  0.000  0.000  0.000
  0.000  0.000  0.600  0.000  0.000  0.000  0.000  0.000  0.000  0.000
  0.000  0.000  0.000  0.600  0.000  0.000  0.000  0.000  0.000  0.000
  0.000  0.000  0.000  0.000  0.600  0.000  0.000  0.000  0.000  0.000
  0.000  0.000  0.000  0.000  0.000  0.000  0.000  0.000  0.000  0.000
  0.000  0.000  0.000  0.000  0.000  0.000  0.000  0.000  0.000  0.000
  0.000  0.000  0.000  0.000  0.000  0.000  0.000  0.000  0.000  0.000
  0.000  0.000  0.000  0.000  0.000  0.000  0.000  0.000  0.000  0.000
  0.000  0.000  0.000  0.000  0.000  0.000  0.000  0.000  0.000  0.000
atomic mx, my, mz =     0.000000    0.000000    3.000000
atom   28   Tr[ns(na)] (up, down, total) =   3.00000  0.00000  3.00000
 eigenvalues: 
  0.000  0.000  0.000  0.000  0.000  0.600  0.600  0.600  0.600  0.600
 eigenvectors:
  0.000  0.000  0.000  0.000  0.000  1.000  0.000  0.000  0.000  0.000
  0.000  0.000  0.000  0.000  0.000  0.000  1.000  0.000  0.000  0.000
  0.000  0.000  0.000  0.000  0.000  0.000  0.000  1.000  0.000  0.000
  0.000  0.000  0.000  0.000  0.000  0.000  0.000  0.000  1.000  0.000
  0.000  0.000  0.000  0.000  0.000  0.000  0.000  0.000  0.000  1.000
  1.000  0.000  0.000  0.000  0.000  0.000  0.000  0.000  0.000  0.000
  0.000  1.000  0.000  0.000  0.000  0.000  0.000  0.000  0.000  0.000
  0.000  0.000  1.000  0.000  0.000  0.000  0.000  0.000  0.000  0.000
  0.000  0.000  0.000  1.000  0.000  0.000  0.000  0.000  0.000  0.000
  0.000  0.000  0.000  0.000  1.000  0.000  0.000  0.000  0.000  0.000
 occupations, | n_(i1, i2)^(sigma1, sigma2) |:
  0.600  0.000  0.000  0.000  0.000  0.000  0.000  0.000  0.000  0.000
  0.000  0.600  0.000  0.000  0.000  0.000  0.000  0.000  0.000  0.000
  0.000  0.000  0.600  0.000  0.000  0.000  0.000  0.000  0.000  0.000
  0.000  0.000  0.000  0.600  0.000  0.000  0.000  0.000  0.000  0.000
  0.000  0.000  0.000  0.000  0.600  0.000  0.000  0.000  0.000  0.000
  0.000  0.000  0.000  0.000  0.000  0.000  0.000  0.000  0.000  0.000
  0.000  0.000  0.000  0.000  0.000  0.000  0.000  0.000  0.000  0.000
  0.000  0.000  0.000  0.000  0.000  0.000  0.000  0.000  0.000  0.000
  0.000  0.000  0.000  0.000  0.000  0.000  0.000  0.000  0.000  0.000
  0.000  0.000  0.000  0.000  0.000  0.000  0.000  0.000  0.000  0.000
atomic mx, my, mz =     0.000000    0.000000    3.000000
atom   31   Tr[ns(na)] (up, down, total) =   3.00000  0.00000  3.00000
 eigenvalues: 
  0.000  0.000  0.000  0.000  0.000  0.600  0.600  0.600  0.600  0.600
 eigenvectors:
  0.000  0.000  0.000  0.000  0.000  1.000  0.000  0.000  0.000  0.000
  0.000  0.000  0.000  0.000  0.000  0.000  1.000  0.000  0.000  0.000
  0.000  0.000  0.000  0.000  0.000  0.000  0.000  1.000  0.000  0.000
  0.000  0.000  0.000  0.000  0.000  0.000  0.000  0.000  1.000  0.000
  0.000  0.000  0.000  0.000  0.000  0.000  0.000  0.000  0.000  1.000
  1.000  0.000  0.000  0.000  0.000  0.000  0.000  0.000  0.000  0.000
  0.000  1.000  0.000  0.000  0.000  0.000  0.000  0.000  0.000  0.000
  0.000  0.000  1.000  0.000  0.000  0.000  0.000  0.000  0.000  0.000
  0.000  0.000  0.000  1.000  0.000  0.000  0.000  0.000  0.000  0.000
  0.000  0.000  0.000  0.000  1.000  0.000  0.000  0.000  0.000  0.000
 occupations, | n_(i1, i2)^(sigma1, sigma2) |:
  0.600  0.000  0.000  0.000  0.000  0.000  0.000  0.000  0.000  0.000
  0.000  0.600  0.000  0.000  0.000  0.000  0.000  0.000  0.000  0.000
  0.000  0.000  0.600  0.000  0.000  0.000  0.000  0.000  0.000  0.000
  0.000  0.000  0.000  0.600  0.000  0.000  0.000  0.000  0.000  0.000
  0.000  0.000  0.000  0.000  0.600  0.000  0.000  0.000  0.000  0.000
  0.000  0.000  0.000  0.000  0.000  0.000  0.000  0.000  0.000  0.000
  0.000  0.000  0.000  0.000  0.000  0.000  0.000  0.000  0.000  0.000
  0.000  0.000  0.000  0.000  0.000  0.000  0.000  0.000  0.000  0.000
  0.000  0.000  0.000  0.000  0.000  0.000  0.000  0.000  0.000  0.000
  0.000  0.000  0.000  0.000  0.000  0.000  0.000  0.000  0.000  0.000
atomic mx, my, mz =     0.000000    0.000000    3.000000
atom   34   Tr[ns(na)] (up, down, total) =   3.00000  0.00000  3.00000
 eigenvalues: 
  0.000  0.000  0.000  0.000  0.000  0.600  0.600  0.600  0.600  0.600
 eigenvectors:
  0.000  0.000  0.000  0.000  0.000  1.000  0.000  0.000  0.000  0.000
  0.000  0.000  0.000  0.000  0.000  0.000  1.000  0.000  0.000  0.000
  0.000  0.000  0.000  0.000  0.000  0.000  0.000  1.000  0.000  0.000
  0.000  0.000  0.000  0.000  0.000  0.000  0.000  0.000  1.000  0.000
  0.000  0.000  0.000  0.000  0.000  0.000  0.000  0.000  0.000  1.000
  1.000  0.000  0.000  0.000  0.000  0.000  0.000  0.000  0.000  0.000
  0.000  1.000  0.000  0.000  0.000  0.000  0.000  0.000  0.000  0.000
  0.000  0.000  1.000  0.000  0.000  0.000  0.000  0.000  0.000  0.000
  0.000  0.000  0.000  1.000  0.000  0.000  0.000  0.000  0.000  0.000
  0.000  0.000  0.000  0.000  1.000  0.000  0.000  0.000  0.000  0.000
 occupations, | n_(i1, i2)^(sigma1, sigma2) |:
  0.600  0.000  0.000  0.000  0.000  0.000  0.000  0.000  0.000  0.000
  0.000  0.600  0.000  0.000  0.000  0.000  0.000  0.000  0.000  0.000
  0.000  0.000  0.600  0.000  0.000  0.000  0.000  0.000  0.000  0.000
  0.000  0.000  0.000  0.600  0.000  0.000  0.000  0.000  0.000  0.000
  0.000  0.000  0.000  0.000  0.600  0.000  0.000  0.000  0.000  0.000
  0.000  0.000  0.000  0.000  0.000  0.000  0.000  0.000  0.000  0.000
  0.000  0.000  0.000  0.000  0.000  0.000  0.000  0.000  0.000  0.000
  0.000  0.000  0.000  0.000  0.000  0.000  0.000  0.000  0.000  0.000
  0.000  0.000  0.000  0.000  0.000  0.000  0.000  0.000  0.000  0.000
  0.000  0.000  0.000  0.000  0.000  0.000  0.000  0.000  0.000  0.000
atomic mx, my, mz =     0.000000    0.000000    3.000000
atom   37   Tr[ns(na)] (up, down, total) =   3.00000  0.00000  3.00000
 eigenvalues: 
  0.000  0.000  0.000  0.000  0.000  0.600  0.600  0.600  0.600  0.600
 eigenvectors:
  0.000  0.000  0.000  0.000  0.000  1.000  0.000  0.000  0.000  0.000
  0.000  0.000  0.000  0.000  0.000  0.000  1.000  0.000  0.000  0.000
  0.000  0.000  0.000  0.000  0.000  0.000  0.000  1.000  0.000  0.000
  0.000  0.000  0.000  0.000  0.000  0.000  0.000  0.000  1.000  0.000
  0.000  0.000  0.000  0.000  0.000  0.000  0.000  0.000  0.000  1.000
  1.000  0.000  0.000  0.000  0.000  0.000  0.000  0.000  0.000  0.000
  0.000  1.000  0.000  0.000  0.000  0.000  0.000  0.000  0.000  0.000
  0.000  0.000  1.000  0.000  0.000  0.000  0.000  0.000  0.000  0.000
  0.000  0.000  0.000  1.000  0.000  0.000  0.000  0.000  0.000  0.000
  0.000  0.000  0.000  0.000  1.000  0.000  0.000  0.000  0.000  0.000
 occupations, | n_(i1, i2)^(sigma1, sigma2) |:
  0.600  0.000  0.000  0.000  0.000  0.000  0.000  0.000  0.000  0.000
  0.000  0.600  0.000  0.000  0.000  0.000  0.000  0.000  0.000  0.000
  0.000  0.000  0.600  0.000  0.000  0.000  0.000  0.000  0.000  0.000
  0.000  0.000  0.000  0.600  0.000  0.000  0.000  0.000  0.000  0.000
  0.000  0.000  0.000  0.000  0.600  0.000  0.000  0.000  0.000  0.000
  0.000  0.000  0.000  0.000  0.000  0.000  0.000  0.000  0.000  0.000
  0.000  0.000  0.000  0.000  0.000  0.000  0.000  0.000  0.000  0.000
  0.000  0.000  0.000  0.000  0.000  0.000  0.000  0.000  0.000  0.000
  0.000  0.000  0.000  0.000  0.000  0.000  0.000  0.000  0.000  0.000
  0.000  0.000  0.000  0.000  0.000  0.000  0.000  0.000  0.000  0.000
atomic mx, my, mz =     0.000000    0.000000    3.000000
atom   40   Tr[ns(na)] (up, down, total) =   3.00000  0.00000  3.00000
 eigenvalues: 
  0.000  0.000  0.000  0.000  0.000  0.600  0.600  0.600  0.600  0.600
 eigenvectors:
  0.000  0.000  0.000  0.000  0.000  1.000  0.000  0.000  0.000  0.000
  0.000  0.000  0.000  0.000  0.000  0.000  1.000  0.000  0.000  0.000
  0.000  0.000  0.000  0.000  0.000  0.000  0.000  1.000  0.000  0.000
  0.000  0.000  0.000  0.000  0.000  0.000  0.000  0.000  1.000  0.000
  0.000  0.000  0.000  0.000  0.000  0.000  0.000  0.000  0.000  1.000
  1.000  0.000  0.000  0.000  0.000  0.000  0.000  0.000  0.000  0.000
  0.000  1.000  0.000  0.000  0.000  0.000  0.000  0.000  0.000  0.000
  0.000  0.000  1.000  0.000  0.000  0.000  0.000  0.000  0.000  0.000
  0.000  0.000  0.000  1.000  0.000  0.000  0.000  0.000  0.000  0.000
  0.000  0.000  0.000  0.000  1.000  0.000  0.000  0.000  0.000  0.000
 occupations, | n_(i1, i2)^(sigma1, sigma2) |:
  0.600  0.000  0.000  0.000  0.000  0.000  0.000  0.000  0.000  0.000
  0.000  0.600  0.000  0.000  0.000  0.000  0.000  0.000  0.000  0.000
  0.000  0.000  0.600  0.000  0.000  0.000  0.000  0.000  0.000  0.000
  0.000  0.000  0.000  0.600  0.000  0.000  0.000  0.000  0.000  0.000
  0.000  0.000  0.000  0.000  0.600  0.000  0.000  0.000  0.000  0.000
  0.000  0.000  0.000  0.000  0.000  0.000  0.000  0.000  0.000  0.000
  0.000  0.000  0.000  0.000  0.000  0.000  0.000  0.000  0.000  0.000
  0.000  0.000  0.000  0.000  0.000  0.000  0.000  0.000  0.000  0.000
  0.000  0.000  0.000  0.000  0.000  0.000  0.000  0.000  0.000  0.000
  0.000  0.000  0.000  0.000  0.000  0.000  0.000  0.000  0.000  0.000
atomic mx, my, mz =     0.000000    0.000000    3.000000
atom   43   Tr[ns(na)] (up, down, total) =   3.00000  0.00000  3.00000
 eigenvalues: 
  0.000  0.000  0.000  0.000  0.000  0.600  0.600  0.600  0.600  0.600
 eigenvectors:
  0.000  0.000  0.000  0.000  0.000  1.000  0.000  0.000  0.000  0.000
  0.000  0.000  0.000  0.000  0.000  0.000  1.000  0.000  0.000  0.000
  0.000  0.000  0.000  0.000  0.000  0.000  0.000  1.000  0.000  0.000
  0.000  0.000  0.000  0.000  0.000  0.000  0.000  0.000  1.000  0.000
  0.000  0.000  0.000  0.000  0.000  0.000  0.000  0.000  0.000  1.000
  1.000  0.000  0.000  0.000  0.000  0.000  0.000  0.000  0.000  0.000
  0.000  1.000  0.000  0.000  0.000  0.000  0.000  0.000  0.000  0.000
  0.000  0.000  1.000  0.000  0.000  0.000  0.000  0.000  0.000  0.000
  0.000  0.000  0.000  1.000  0.000  0.000  0.000  0.000  0.000  0.000
  0.000  0.000  0.000  0.000  1.000  0.000  0.000  0.000  0.000  0.000
 occupations, | n_(i1, i2)^(sigma1, sigma2) |:
  0.600  0.000  0.000  0.000  0.000  0.000  0.000  0.000  0.000  0.000
  0.000  0.600  0.000  0.000  0.000  0.000  0.000  0.000  0.000  0.000
  0.000  0.000  0.600  0.000  0.000  0.000  0.000  0.000  0.000  0.000
  0.000  0.000  0.000  0.600  0.000  0.000  0.000  0.000  0.000  0.000
  0.000  0.000  0.000  0.000  0.600  0.000  0.000  0.000  0.000  0.000
  0.000  0.000  0.000  0.000  0.000  0.000  0.000  0.000  0.000  0.000
  0.000  0.000  0.000  0.000  0.000  0.000  0.000  0.000  0.000  0.000
  0.000  0.000  0.000  0.000  0.000  0.000  0.000  0.000  0.000  0.000
  0.000  0.000  0.000  0.000  0.000  0.000  0.000  0.000  0.000  0.000
  0.000  0.000  0.000  0.000  0.000  0.000  0.000  0.000  0.000  0.000
atomic mx, my, mz =     0.000000    0.000000    3.000000
atom   46   Tr[ns(na)] (up, down, total) =   3.00000  0.00000  3.00000
 eigenvalues: 
  0.000  0.000  0.000  0.000  0.000  0.600  0.600  0.600  0.600  0.600
 eigenvectors:
  0.000  0.000  0.000  0.000  0.000  1.000  0.000  0.000  0.000  0.000
  0.000  0.000  0.000  0.000  0.000  0.000  1.000  0.000  0.000  0.000
  0.000  0.000  0.000  0.000  0.000  0.000  0.000  1.000  0.000  0.000
  0.000  0.000  0.000  0.000  0.000  0.000  0.000  0.000  1.000  0.000
  0.000  0.000  0.000  0.000  0.000  0.000  0.000  0.000  0.000  1.000
  1.000  0.000  0.000  0.000  0.000  0.000  0.000  0.000  0.000  0.000
  0.000  1.000  0.000  0.000  0.000  0.000  0.000  0.000  0.000  0.000
  0.000  0.000  1.000  0.000  0.000  0.000  0.000  0.000  0.000  0.000
  0.000  0.000  0.000  1.000  0.000  0.000  0.000  0.000  0.000  0.000
  0.000  0.000  0.000  0.000  1.000  0.000  0.000  0.000  0.000  0.000
 occupations, | n_(i1, i2)^(sigma1, sigma2) |:
  0.600  0.000  0.000  0.000  0.000  0.000  0.000  0.000  0.000  0.000
  0.000  0.600  0.000  0.000  0.000  0.000  0.000  0.000  0.000  0.000
  0.000  0.000  0.600  0.000  0.000  0.000  0.000  0.000  0.000  0.000
  0.000  0.000  0.000  0.600  0.000  0.000  0.000  0.000  0.000  0.000
  0.000  0.000  0.000  0.000  0.600  0.000  0.000  0.000  0.000  0.000
  0.000  0.000  0.000  0.000  0.000  0.000  0.000  0.000  0.000  0.000
  0.000  0.000  0.000  0.000  0.000  0.000  0.000  0.000  0.000  0.000
  0.000  0.000  0.000  0.000  0.000  0.000  0.000  0.000  0.000  0.000
  0.000  0.000  0.000  0.000  0.000  0.000  0.000  0.000  0.000  0.000
  0.000  0.000  0.000  0.000  0.000  0.000  0.000  0.000  0.000  0.000
atomic mx, my, mz =     0.000000    0.000000    3.000000
N of occupied +U levels =   48.000000
 --- exit write_ns ---

 ==============================================================================
     atom number    1 relative position :    0.0000   0.0000   0.1217
     charge :    10.259554  (integrated on a sphere of radius 0.078)
     magnetization :          0.000000    0.000000    4.998866
     magnetization/charge:    0.000000    0.000000    0.487240
     polar coord.: r, theta, phi [deg] :     4.998866    0.000000  360.000000

 ==============================================================================

 ==============================================================================
     atom number    2 relative position :    0.1250   0.0722   0.0000
     charge :     3.976814  (integrated on a sphere of radius 0.078)
     magnetization :          0.000000    0.000000    0.121762
     magnetization/charge:    0.000000    0.000000    0.030618
     polar coord.: r, theta, phi [deg] :     0.121762    0.000000  360.000000

 ==============================================================================

 ==============================================================================
     atom number    3 relative position :    0.1250   0.0722   0.2433
     charge :     3.976847  (integrated on a sphere of radius 0.078)
     magnetization :          0.000000    0.000000    0.121758
     magnetization/charge:    0.000000    0.000000    0.030617
     polar coord.: r, theta, phi [deg] :     0.121758    0.000000  360.000000

 ==============================================================================

 ==============================================================================
     atom number    4 relative position :    0.2500   0.0000   0.1217
     charge :    10.259554  (integrated on a sphere of radius 0.078)
     magnetization :          0.000000    0.000000    4.998866
     magnetization/charge:    0.000000    0.000000    0.487240
     polar coord.: r, theta, phi [deg] :     4.998866    0.000000  360.000000

 ==============================================================================

 ==============================================================================
     atom number    5 relative position :    0.3750   0.0722   0.0000
     charge :     3.976814  (integrated on a sphere of radius 0.078)
     magnetization :          0.000000    0.000000    0.121762
     magnetization/charge:    0.000000    0.000000    0.030618
     polar coord.: r, theta, phi [deg] :     0.121762    0.000000  360.000000

 ==============================================================================

 ==============================================================================
     atom number    6 relative position :    0.3750   0.0722   0.2433
     charge :     3.976847  (integrated on a sphere of radius 0.078)
     magnetization :          0.000000    0.000000    0.121758
     magnetization/charge:    0.000000    0.000000    0.030617
     polar coord.: r, theta, phi [deg] :     0.121758    0.000000  360.000000

 ==============================================================================

 ==============================================================================
     atom number    7 relative position :    0.5000   0.0000   0.1217
     charge :    10.259554  (integrated on a sphere of radius 0.078)
     magnetization :          0.000000    0.000000    4.998866
     magnetization/charge:    0.000000    0.000000    0.487240
     polar coord.: r, theta, phi [deg] :     4.998866    0.000000  360.000000

 ==============================================================================

 ==============================================================================
     atom number    8 relative position :    0.6250   0.0722   0.0000
     charge :     3.976814  (integrated on a sphere of radius 0.078)
     magnetization :          0.000000    0.000000    0.121762
     magnetization/charge:    0.000000    0.000000    0.030618
     polar coord.: r, theta, phi [deg] :     0.121762    0.000000  360.000000

 ==============================================================================

 ==============================================================================
     atom number    9 relative position :    0.6250   0.0722   0.2433
     charge :     3.976847  (integrated on a sphere of radius 0.078)
     magnetization :          0.000000    0.000000    0.121758
     magnetization/charge:    0.000000    0.000000    0.030617
     polar coord.: r, theta, phi [deg] :     0.121758    0.000000  360.000000

 ==============================================================================

 ==============================================================================
     atom number   10 relative position :    0.7500   0.0000   0.1217
     charge :    10.259554  (integrated on a sphere of radius 0.078)
     magnetization :          0.000000    0.000000    4.998866
     magnetization/charge:    0.000000    0.000000    0.487240
     polar coord.: r, theta, phi [deg] :     4.998866    0.000000  360.000000

 ==============================================================================

 ==============================================================================
     atom number   11 relative position :    0.8750   0.0722   0.0000
     charge :     3.976814  (integrated on a sphere of radius 0.078)
     magnetization :          0.000000    0.000000    0.121762
     magnetization/charge:    0.000000    0.000000    0.030618
     polar coord.: r, theta, phi [deg] :     0.121762    0.000000  360.000000

 ==============================================================================

 ==============================================================================
     atom number   12 relative position :    0.8750   0.0722   0.2433
     charge :     3.976847  (integrated on a sphere of radius 0.078)
     magnetization :          0.000000    0.000000    0.121758
     magnetization/charge:    0.000000    0.000000    0.030617
     polar coord.: r, theta, phi [deg] :     0.121758    0.000000  360.000000

 ==============================================================================

 ==============================================================================
     atom number   13 relative position :    0.6250   0.2165   0.1217
     charge :    10.259554  (integrated on a sphere of radius 0.078)
     magnetization :          0.000000    0.000000    4.998866
     magnetization/charge:    0.000000    0.000000    0.487240
     polar coord.: r, theta, phi [deg] :     4.998866    0.000000  360.000000

 ==============================================================================

 ==============================================================================
     atom number   14 relative position :    0.7500   0.2887   0.0000
     charge :     3.976814  (integrated on a sphere of radius 0.078)
     magnetization :          0.000000    0.000000    0.121762
     magnetization/charge:    0.000000    0.000000    0.030618
     polar coord.: r, theta, phi [deg] :     0.121762    0.000000  360.000000

 ==============================================================================

 ==============================================================================
     atom number   15 relative position :    0.7500   0.2887   0.2433
     charge :     3.976847  (integrated on a sphere of radius 0.078)
     magnetization :          0.000000    0.000000    0.121758
     magnetization/charge:    0.000000    0.000000    0.030617
     polar coord.: r, theta, phi [deg] :     0.121758    0.000000  360.000000

 ==============================================================================

 ==============================================================================
     atom number   16 relative position :    0.5000   0.4330   0.1217
     charge :    10.259554  (integrated on a sphere of radius 0.078)
     magnetization :          0.000000    0.000000    4.998866
     magnetization/charge:    0.000000    0.000000    0.487240
     polar coord.: r, theta, phi [deg] :     4.998866    0.000000  360.000000

 ==============================================================================

 ==============================================================================
     atom number   17 relative position :    0.6250   0.5052   0.0000
     charge :     3.976814  (integrated on a sphere of radius 0.078)
     magnetization :          0.000000    0.000000    0.121762
     magnetization/charge:    0.000000    0.000000    0.030618
     polar coord.: r, theta, phi [deg] :     0.121762    0.000000  360.000000

 ==============================================================================

 ==============================================================================
     atom number   18 relative position :    0.6250   0.5052   0.2433
     charge :     3.976847  (integrated on a sphere of radius 0.078)
     magnetization :          0.000000    0.000000    0.121758
     magnetization/charge:    0.000000    0.000000    0.030617
     polar coord.: r, theta, phi [deg] :     0.121758    0.000000  360.000000

 ==============================================================================

 ==============================================================================
     atom number   19 relative position :    0.3750   0.6495   0.1217
     charge :    10.259554  (integrated on a sphere of radius 0.078)
     magnetization :          0.000000    0.000000    4.998866
     magnetization/charge:    0.000000    0.000000    0.487240
     polar coord.: r, theta, phi [deg] :     4.998866    0.000000  360.000000

 ==============================================================================

 ==============================================================================
     atom number   20 relative position :    0.5000   0.7217   0.0000
     charge :     3.976814  (integrated on a sphere of radius 0.078)
     magnetization :          0.000000    0.000000    0.121762
     magnetization/charge:    0.000000    0.000000    0.030618
     polar coord.: r, theta, phi [deg] :     0.121762    0.000000  360.000000

 ==============================================================================

 ==============================================================================
     atom number   21 relative position :    0.5000   0.7217   0.2433
     charge :     3.976847  (integrated on a sphere of radius 0.078)
     magnetization :          0.000000    0.000000    0.121758
     magnetization/charge:    0.000000    0.000000    0.030617
     polar coord.: r, theta, phi [deg] :     0.121758    0.000000  360.000000

 ==============================================================================

 ==============================================================================
     atom number   22 relative position :    0.1250   0.6495   0.1217
     charge :    10.259554  (integrated on a sphere of radius 0.078)
     magnetization :          0.000000    0.000000    4.998866
     magnetization/charge:    0.000000    0.000000    0.487240
     polar coord.: r, theta, phi [deg] :     4.998866    0.000000  360.000000

 ==============================================================================

 ==============================================================================
     atom number   23 relative position :    0.2500   0.7217   0.0000
     charge :     3.976814  (integrated on a sphere of radius 0.078)
     magnetization :          0.000000    0.000000    0.121762
     magnetization/charge:    0.000000    0.000000    0.030618
     polar coord.: r, theta, phi [deg] :     0.121762    0.000000  360.000000

 ==============================================================================

 ==============================================================================
     atom number   24 relative position :    0.2500   0.7217   0.2433
     charge :     3.976847  (integrated on a sphere of radius 0.078)
     magnetization :          0.000000    0.000000    0.121758
     magnetization/charge:    0.000000    0.000000    0.030617
     polar coord.: r, theta, phi [deg] :     0.121758    0.000000  360.000000

 ==============================================================================

 ==============================================================================
     atom number   25 relative position :   -0.1250   0.6495   0.1217
     charge :    10.259554  (integrated on a sphere of radius 0.078)
     magnetization :          0.000000    0.000000    4.998866
     magnetization/charge:    0.000000    0.000000    0.487240
     polar coord.: r, theta, phi [deg] :     4.998866    0.000000  360.000000

 ==============================================================================

 ==============================================================================
     atom number   26 relative position :    0.0000   0.7217   0.0000
     charge :     3.976814  (integrated on a sphere of radius 0.078)
     magnetization :          0.000000    0.000000    0.121762
     magnetization/charge:    0.000000    0.000000    0.030618
     polar coord.: r, theta, phi [deg] :     0.121762    0.000000  360.000000

 ==============================================================================

 ==============================================================================
     atom number   27 relative position :    0.0000   0.7217   0.2433
     charge :     3.976847  (integrated on a sphere of radius 0.078)
     magnetization :          0.000000    0.000000    0.121758
     magnetization/charge:    0.000000    0.000000    0.030617
     polar coord.: r, theta, phi [deg] :     0.121758    0.000000  360.000000

 ==============================================================================

 ==============================================================================
     atom number   28 relative position :   -0.3750   0.6495   0.1217
     charge :    10.259554  (integrated on a sphere of radius 0.078)
     magnetization :          0.000000    0.000000    4.998866
     magnetization/charge:    0.000000    0.000000    0.487240
     polar coord.: r, theta, phi [deg] :     4.998866    0.000000  360.000000

 ==============================================================================

 ==============================================================================
     atom number   29 relative position :   -0.2500   0.7217   0.0000
     charge :     3.976814  (integrated on a sphere of radius 0.078)
     magnetization :          0.000000    0.000000    0.121762
     magnetization/charge:    0.000000    0.000000    0.030618
     polar coord.: r, theta, phi [deg] :     0.121762    0.000000  360.000000

 ==============================================================================

 ==============================================================================
     atom number   30 relative position :   -0.2500   0.7217   0.2433
     charge :     3.976847  (integrated on a sphere of radius 0.078)
     magnetization :          0.000000    0.000000    0.121758
     magnetization/charge:    0.000000    0.000000    0.030617
     polar coord.: r, theta, phi [deg] :     0.121758    0.000000  360.000000

 ==============================================================================

 ==============================================================================
     atom number   31 relative position :    0.3750   0.2165   0.1217
     charge :    10.259554  (integrated on a sphere of radius 0.078)
     magnetization :          0.000000    0.000000    4.998866
     magnetization/charge:    0.000000    0.000000    0.487240
     polar coord.: r, theta, phi [deg] :     4.998866    0.000000  360.000000

 ==============================================================================

 ==============================================================================
     atom number   32 relative position :    0.5000   0.2887   0.0000
     charge :     3.976814  (integrated on a sphere of radius 0.078)
     magnetization :          0.000000    0.000000    0.121762
     magnetization/charge:    0.000000    0.000000    0.030618
     polar coord.: r, theta, phi [deg] :     0.121762    0.000000  360.000000

 ==============================================================================

 ==============================================================================
     atom number   33 relative position :    0.5000   0.2887   0.2433
     charge :     3.976847  (integrated on a sphere of radius 0.078)
     magnetization :          0.000000    0.000000    0.121758
     magnetization/charge:    0.000000    0.000000    0.030617
     polar coord.: r, theta, phi [deg] :     0.121758    0.000000  360.000000

 ==============================================================================

 ==============================================================================
     atom number   34 relative position :    0.2500   0.4330   0.1217
     charge :    10.259554  (integrated on a sphere of radius 0.078)
     magnetization :          0.000000    0.000000    4.998866
     magnetization/charge:    0.000000    0.000000    0.487240
     polar coord.: r, theta, phi [deg] :     4.998866    0.000000  360.000000

 ==============================================================================

 ==============================================================================
     atom number   35 relative position :    0.3750   0.5052   0.0000
     charge :     3.976814  (integrated on a sphere of radius 0.078)
     magnetization :          0.000000    0.000000    0.121762
     magnetization/charge:    0.000000    0.000000    0.030618
     polar coord.: r, theta, phi [deg] :     0.121762    0.000000  360.000000

 ==============================================================================

 ==============================================================================
     atom number   36 relative position :    0.3750   0.5052   0.2433
     charge :     3.976847  (integrated on a sphere of radius 0.078)
     magnetization :          0.000000    0.000000    0.121758
     magnetization/charge:    0.000000    0.000000    0.030617
     polar coord.: r, theta, phi [deg] :     0.121758    0.000000  360.000000

 ==============================================================================

 ==============================================================================
     atom number   37 relative position :    0.0000   0.4330   0.1217
     charge :    10.259554  (integrated on a sphere of radius 0.078)
     magnetization :          0.000000    0.000000    4.998866
     magnetization/charge:    0.000000    0.000000    0.487240
     polar coord.: r, theta, phi [deg] :     4.998866    0.000000  360.000000

 ==============================================================================

 ==============================================================================
     atom number   38 relative position :    0.1250   0.5052   0.0000
     charge :     3.976814  (integrated on a sphere of radius 0.078)
     magnetization :          0.000000    0.000000    0.121762
     magnetization/charge:    0.000000    0.000000    0.030618
     polar coord.: r, theta, phi [deg] :     0.121762    0.000000  360.000000

 ==============================================================================

 ==============================================================================
     atom number   39 relative position :    0.1250   0.5052   0.2433
     charge :     3.976847  (integrated on a sphere of radius 0.078)
     magnetization :          0.000000    0.000000    0.121758
     magnetization/charge:    0.000000    0.000000    0.030617
     polar coord.: r, theta, phi [deg] :     0.121758    0.000000  360.000000

 ==============================================================================

 ==============================================================================
     atom number   40 relative position :    0.1250   0.2165   0.1217
     charge :    10.259554  (integrated on a sphere of radius 0.078)
     magnetization :          0.000000    0.000000    4.998866
     magnetization/charge:    0.000000    0.000000    0.487240
     polar coord.: r, theta, phi [deg] :     4.998866    0.000000  360.000000

 ==============================================================================

 ==============================================================================
     atom number   41 relative position :    0.2500   0.2887   0.0000
     charge :     3.976814  (integrated on a sphere of radius 0.078)
     magnetization :          0.000000    0.000000    0.121762
     magnetization/charge:    0.000000    0.000000    0.030618
     polar coord.: r, theta, phi [deg] :     0.121762    0.000000  360.000000

 ==============================================================================

 ==============================================================================
     atom number   42 relative position :    0.2500   0.2887   0.2433
     charge :     3.976847  (integrated on a sphere of radius 0.078)
     magnetization :          0.000000    0.000000    0.121758
     magnetization/charge:    0.000000    0.000000    0.030617
     polar coord.: r, theta, phi [deg] :     0.121758    0.000000  360.000000

 ==============================================================================

 ==============================================================================
     atom number   43 relative position :   -0.1250   0.2165   0.1217
     charge :    10.259554  (integrated on a sphere of radius 0.078)
     magnetization :          0.000000    0.000000    4.998866
     magnetization/charge:    0.000000    0.000000    0.487240
     polar coord.: r, theta, phi [deg] :     4.998866    0.000000  360.000000

 ==============================================================================

 ==============================================================================
     atom number   44 relative position :    0.0000   0.2887   0.0000
     charge :     3.976814  (integrated on a sphere of radius 0.078)
     magnetization :          0.000000    0.000000    0.121762
     magnetization/charge:    0.000000    0.000000    0.030618
     polar coord.: r, theta, phi [deg] :     0.121762    0.000000  360.000000

 ==============================================================================

 ==============================================================================
     atom number   45 relative position :    0.0000   0.2887   0.2433
     charge :     3.976847  (integrated on a sphere of radius 0.078)
     magnetization :          0.000000    0.000000    0.121758
     magnetization/charge:    0.000000    0.000000    0.030617
     polar coord.: r, theta, phi [deg] :     0.121758    0.000000  360.000000

 ==============================================================================

 ==============================================================================
     atom number   46 relative position :   -0.2500   0.4330   0.1217
     charge :    10.259554  (integrated on a sphere of radius 0.078)
     magnetization :          0.000000    0.000000    4.998866
     magnetization/charge:    0.000000    0.000000    0.487240
     polar coord.: r, theta, phi [deg] :     4.998866    0.000000  360.000000

 ==============================================================================

 ==============================================================================
     atom number   47 relative position :   -0.1250   0.5052   0.0000
     charge :     3.976814  (integrated on a sphere of radius 0.078)
     magnetization :          0.000000    0.000000    0.121762
     magnetization/charge:    0.000000    0.000000    0.030618
     polar coord.: r, theta, phi [deg] :     0.121762    0.000000  360.000000

 ==============================================================================

 ==============================================================================
     atom number   48 relative position :   -0.1250   0.5052   0.2433
     charge :     3.976847  (integrated on a sphere of radius 0.078)
     magnetization :          0.000000    0.000000    0.121758
     magnetization/charge:    0.000000    0.000000    0.030617
     polar coord.: r, theta, phi [deg] :     0.121758    0.000000  360.000000

 ==============================================================================
 Atomic wfc used for LDA+U Projector are NOT orthogonalized
     Starting wfcs are  672 randomized atomic wfcs
     Checking if some PAW data can be deallocated... 

     total cpu time spent up to now is      222.6 secs

     Self-consistent Calculation

     iteration #  1     ecut=    75.00 Ry     beta= 0.70
     Davidson diagonalization with overlap
     ethr =  1.00E-02,  avg # of iterations =  3.3
 --- enter write_ns ---
 LDA+U parameters:
U(  1) =   7.5681   J(  1) =   0.0000   B(  1) =   0.0000
atom    1   Tr[ns(na)] (up, down, total) =   3.78630  1.06841  4.85472
 eigenvalues: 
  0.122  0.170  0.171  0.298  0.307  0.737  0.740  0.746  0.760  0.803
 eigenvectors:
  0.000  0.000  0.000  0.000  0.001  0.000  0.000  0.000  0.000  0.999
  0.000  0.000  0.000  0.000  0.000  0.500  0.000  0.500  0.000  0.000
  0.000  0.000  0.000  0.000  0.000  0.500  0.000  0.500  0.000  0.000
  0.000  0.000  0.000  0.000  0.000  0.000  0.500  0.000  0.500  0.000
  0.000  0.000  0.000  0.000  0.000  0.000  0.500  0.000  0.500  0.000
  1.000  0.000  0.000  0.000  0.000  0.000  0.000  0.000  0.000  0.000
  0.000  0.000  0.000  0.500  0.500  0.000  0.000  0.000  0.000  0.000
  0.000  0.000  0.000  0.500  0.500  0.000  0.000  0.000  0.000  0.000
  0.000  0.500  0.500  0.000  0.000  0.000  0.000  0.000  0.000  0.000
  0.000  0.500  0.500  0.000  0.000  0.000  0.000  0.000  0.000  0.000
 occupations, | n_(i1, i2)^(sigma1, sigma2) |:
  0.802  0.000  0.000  0.000  0.000  0.000  0.008  0.008  0.000  0.000
  0.000  0.742  0.004  0.000  0.000  0.006  0.000  0.000  0.004  0.004
  0.000  0.004  0.742  0.000  0.000  0.006  0.000  0.000  0.004  0.004
  0.000  0.000  0.000  0.750  0.010  0.000  0.004  0.004  0.000  0.000
  0.000  0.000  0.000  0.010  0.750  0.000  0.004  0.004  0.000  0.000
  0.000  0.006  0.006  0.000  0.000  0.122  0.000  0.000  0.000  0.000
  0.008  0.000  0.000  0.004  0.004  0.000  0.303  0.004  0.000  0.000
  0.008  0.000  0.000  0.004  0.004  0.000  0.004  0.303  0.000  0.000
  0.000  0.004  0.004  0.000  0.000  0.000  0.000  0.000  0.171  0.001
  0.000  0.004  0.004  0.000  0.000  0.000  0.000  0.000  0.001  0.171
atomic mx, my, mz =    -0.000000   -0.000000    2.717891
atom    4   Tr[ns(na)] (up, down, total) =   3.78531  1.06850  4.85381
 eigenvalues: 
  0.122  0.170  0.171  0.298  0.307  0.737  0.740  0.746  0.760  0.802
 eigenvectors:
  0.000  0.000  0.000  0.000  0.001  0.000  0.000  0.000  0.000  0.999
  0.000  0.000  0.000  0.000  0.000  0.498  0.000  0.501  0.000  0.000
  0.000  0.000  0.000  0.000  0.000  0.501  0.000  0.498  0.000  0.000
  0.000  0.000  0.000  0.000  0.000  0.000  0.499  0.000  0.501  0.000
  0.000  0.000  0.000  0.000  0.000  0.000  0.501  0.000  0.499  0.000
  1.000  0.000  0.000  0.000  0.000  0.000  0.000  0.000  0.000  0.000
  0.000  0.000  0.000  0.499  0.500  0.000  0.000  0.000  0.000  0.000
  0.000  0.000  0.000  0.500  0.499  0.000  0.000  0.000  0.000  0.000
  0.000  0.496  0.504  0.000  0.000  0.000  0.000  0.000  0.000  0.000
  0.000  0.504  0.495  0.000  0.000  0.000  0.000  0.000  0.000  0.000
 occupations, | n_(i1, i2)^(sigma1, sigma2) |:
  0.802  0.000  0.000  0.000  0.000  0.000  0.008  0.008  0.000  0.000
  0.000  0.742  0.004  0.000  0.000  0.006  0.000  0.000  0.004  0.004
  0.000  0.004  0.742  0.000  0.000  0.006  0.000  0.000  0.004  0.004
  0.000  0.000  0.000  0.750  0.010  0.000  0.004  0.004  0.000  0.000
  0.000  0.000  0.000  0.010  0.750  0.000  0.004  0.004  0.000  0.000
  0.000  0.006  0.006  0.000  0.000  0.122  0.000  0.000  0.000  0.000
  0.008  0.000  0.000  0.004  0.004  0.000  0.303  0.004  0.000  0.000
  0.008  0.000  0.000  0.004  0.004  0.000  0.004  0.303  0.000  0.000
  0.000  0.004  0.004  0.000  0.000  0.000  0.000  0.000  0.171  0.001
  0.000  0.004  0.004  0.000  0.000  0.000  0.000  0.000  0.001  0.171
atomic mx, my, mz =    -0.000126   -0.000372    2.716810
atom    7   Tr[ns(na)] (up, down, total) =   3.78777  1.06882  4.85659
 eigenvalues: 
  0.122  0.170  0.171  0.299  0.307  0.738  0.741  0.746  0.761  0.803
 eigenvectors:
  0.000  0.000  0.000  0.000  0.001  0.000  0.000  0.000  0.000  0.999
  0.000  0.000  0.000  0.000  0.000  0.502  0.000  0.498  0.000  0.000
  0.000  0.000  0.000  0.000  0.000  0.498  0.000  0.502  0.000  0.000
  0.000  0.000  0.000  0.000  0.000  0.000  0.496  0.000  0.504  0.000
  0.000  0.000  0.000  0.000  0.000  0.000  0.504  0.000  0.496  0.000
  1.000  0.000  0.000  0.000  0.000  0.000  0.000  0.000  0.000  0.000
  0.000  0.000  0.000  0.501  0.498  0.000  0.000  0.000  0.000  0.000
  0.000  0.000  0.000  0.498  0.501  0.000  0.000  0.000  0.000  0.000
  0.000  0.506  0.494  0.000  0.000  0.000  0.000  0.000  0.000  0.000
  0.000  0.494  0.506  0.000  0.000  0.000  0.000  0.000  0.000  0.000
 occupations, | n_(i1, i2)^(sigma1, sigma2) |:
  0.803  0.000  0.000  0.000  0.000  0.000  0.008  0.008  0.000  0.000
  0.000  0.742  0.004  0.000  0.000  0.006  0.000  0.000  0.004  0.004
  0.000  0.004  0.742  0.000  0.000  0.006  0.000  0.000  0.004  0.004
  0.000  0.000  0.000  0.751  0.010  0.000  0.004  0.004  0.000  0.000
  0.000  0.000  0.000  0.010  0.750  0.000  0.004  0.004  0.000  0.000
  0.000  0.006  0.006  0.000  0.000  0.122  0.000  0.000  0.000  0.000
  0.008  0.000  0.000  0.004  0.004  0.000  0.303  0.004  0.000  0.000
  0.008  0.000  0.000  0.004  0.004  0.000  0.004  0.303  0.000  0.000
  0.000  0.004  0.004  0.000  0.000  0.000  0.000  0.000  0.171  0.001
  0.000  0.004  0.004  0.000  0.000  0.000  0.000  0.000  0.001  0.171
atomic mx, my, mz =    -0.000059    0.000048    2.718950
atom   10   Tr[ns(na)] (up, down, total) =   3.78531  1.06850  4.85381
 eigenvalues: 
  0.122  0.170  0.171  0.298  0.307  0.737  0.740  0.746  0.760  0.802
 eigenvectors:
  0.000  0.000  0.000  0.000  0.001  0.000  0.000  0.000  0.000  0.999
  0.000  0.000  0.000  0.000  0.000  0.498  0.000  0.501  0.000  0.000
  0.000  0.000  0.000  0.000  0.000  0.501  0.000  0.498  0.000  0.000
  0.000  0.000  0.000  0.000  0.000  0.000  0.499  0.000  0.501  0.000
  0.000  0.000  0.000  0.000  0.000  0.000  0.501  0.000  0.498  0.000
  1.000  0.000  0.000  0.000  0.000  0.000  0.000  0.000  0.000  0.000
  0.000  0.000  0.000  0.499  0.500  0.000  0.000  0.000  0.000  0.000
  0.000  0.000  0.000  0.500  0.499  0.000  0.000  0.000  0.000  0.000
  0.000  0.494  0.506  0.000  0.000  0.000  0.000  0.000  0.000  0.000
  0.000  0.506  0.494  0.000  0.000  0.000  0.000  0.000  0.000  0.000
 occupations, | n_(i1, i2)^(sigma1, sigma2) |:
  0.802  0.000  0.000  0.000  0.000  0.000  0.008  0.008  0.000  0.000
  0.000  0.742  0.004  0.000  0.000  0.006  0.000  0.000  0.004  0.004
  0.000  0.004  0.742  0.000  0.000  0.006  0.000  0.000  0.004  0.004
  0.000  0.000  0.000  0.750  0.010  0.000  0.004  0.004  0.000  0.000
  0.000  0.000  0.000  0.010  0.750  0.000  0.004  0.004  0.000  0.000
  0.000  0.006  0.006  0.000  0.000  0.122  0.000  0.000  0.000  0.000
  0.008  0.000  0.000  0.004  0.004  0.000  0.303  0.004  0.000  0.000
  0.008  0.000  0.000  0.004  0.004  0.000  0.004  0.303  0.000  0.000
  0.000  0.004  0.004  0.000  0.000  0.000  0.000  0.000  0.171  0.001
  0.000  0.004  0.004  0.000  0.000  0.000  0.000  0.000  0.001  0.171
atomic mx, my, mz =     0.000023   -0.000094    2.716810
atom   13   Tr[ns(na)] (up, down, total) =   3.78351  1.06841  4.85191
 eigenvalues: 
  0.122  0.170  0.171  0.298  0.307  0.737  0.740  0.746  0.760  0.802
 eigenvectors:
  0.000  0.000  0.000  0.000  0.001  0.000  0.000  0.000  0.000  0.999
  0.000  0.000  0.000  0.000  0.000  0.498  0.000  0.502  0.000  0.000
  0.000  0.000  0.000  0.000  0.000  0.502  0.000  0.498  0.000  0.000
  0.000  0.000  0.000  0.000  0.000  0.000  0.500  0.000  0.500  0.000
  0.000  0.000  0.000  0.000  0.000  0.000  0.500  0.000  0.500  0.000
  1.000  0.000  0.000  0.000  0.000  0.000  0.000  0.000  0.000  0.000
  0.000  0.000  0.000  0.500  0.500  0.000  0.000  0.000  0.000  0.000
  0.000  0.000  0.000  0.500  0.500  0.000  0.000  0.000  0.000  0.000
  0.000  0.499  0.501  0.000  0.000  0.000  0.000  0.000  0.000  0.000
  0.000  0.501  0.499  0.000  0.000  0.000  0.000  0.000  0.000  0.000
 occupations, | n_(i1, i2)^(sigma1, sigma2) |:
  0.802  0.000  0.000  0.000  0.000  0.000  0.008  0.008  0.000  0.000
  0.000  0.741  0.004  0.000  0.000  0.006  0.000  0.000  0.004  0.004
  0.000  0.004  0.741  0.000  0.000  0.006  0.000  0.000  0.004  0.004
  0.000  0.000  0.000  0.750  0.010  0.000  0.004  0.004  0.000  0.000
  0.000  0.000  0.000  0.010  0.750  0.000  0.004  0.004  0.000  0.000
  0.000  0.006  0.006  0.000  0.000  0.122  0.000  0.000  0.000  0.000
  0.008  0.000  0.000  0.004  0.004  0.000  0.303  0.004  0.000  0.000
  0.008  0.000  0.000  0.004  0.004  0.000  0.004  0.303  0.000  0.000
  0.000  0.004  0.004  0.000  0.000  0.000  0.000  0.000  0.171  0.001
  0.000  0.004  0.004  0.000  0.000  0.000  0.000  0.000  0.001  0.171
atomic mx, my, mz =    -0.000161    0.000082    2.715103
atom   16   Tr[ns(na)] (up, down, total) =   3.78351  1.06841  4.85191
 eigenvalues: 
  0.122  0.170  0.171  0.298  0.307  0.737  0.740  0.746  0.760  0.802
 eigenvectors:
  0.000  0.000  0.000  0.000  0.001  0.000  0.000  0.000  0.000  0.999
  0.000  0.000  0.000  0.000  0.000  0.504  0.000  0.496  0.000  0.000
  0.000  0.000  0.000  0.000  0.000  0.496  0.000  0.504  0.000  0.000
  0.000  0.000  0.000  0.000  0.000  0.000  0.499  0.000  0.500  0.000
  0.000  0.000  0.000  0.000  0.000  0.000  0.500  0.000  0.499  0.000
  1.000  0.000  0.000  0.000  0.000  0.000  0.000  0.000  0.000  0.000
  0.000  0.000  0.000  0.500  0.500  0.000  0.000  0.000  0.000  0.000
  0.000  0.000  0.000  0.500  0.500  0.000  0.000  0.000  0.000  0.000
  0.000  0.498  0.502  0.000  0.000  0.000  0.000  0.000  0.000  0.000
  0.000  0.502  0.497  0.000  0.000  0.000  0.000  0.000  0.000  0.000
 occupations, | n_(i1, i2)^(sigma1, sigma2) |:
  0.802  0.000  0.000  0.000  0.000  0.000  0.008  0.008  0.000  0.000
  0.000  0.741  0.004  0.000  0.000  0.006  0.000  0.000  0.004  0.004
  0.000  0.004  0.741  0.000  0.000  0.006  0.000  0.000  0.004  0.004
  0.000  0.000  0.000  0.750  0.010  0.000  0.004  0.004  0.000  0.000
  0.000  0.000  0.000  0.010  0.750  0.000  0.004  0.004  0.000  0.000
  0.000  0.006  0.006  0.000  0.000  0.122  0.000  0.000  0.000  0.000
  0.008  0.000  0.000  0.004  0.004  0.000  0.303  0.004  0.000  0.000
  0.008  0.000  0.000  0.004  0.004  0.000  0.004  0.303  0.000  0.000
  0.000  0.004  0.004  0.000  0.000  0.000  0.000  0.000  0.171  0.001
  0.000  0.004  0.004  0.000  0.000  0.000  0.000  0.000  0.001  0.171
atomic mx, my, mz =     0.000001   -0.000189    2.715103
atom   19   Tr[ns(na)] (up, down, total) =   3.78531  1.06850  4.85381
 eigenvalues: 
  0.122  0.170  0.171  0.298  0.307  0.737  0.740  0.746  0.760  0.802
 eigenvectors:
  0.000  0.000  0.000  0.000  0.001  0.000  0.000  0.000  0.000  0.999
  0.000  0.000  0.000  0.000  0.000  0.499  0.000  0.500  0.000  0.000
  0.000  0.000  0.000  0.000  0.000  0.500  0.000  0.499  0.000  0.000
  0.000  0.000  0.000  0.000  0.000  0.000  0.500  0.000  0.500  0.000
  0.000  0.000  0.000  0.000  0.000  0.000  0.500  0.000  0.500  0.000
  1.000  0.000  0.000  0.000  0.000  0.000  0.000  0.000  0.000  0.000
  0.000  0.000  0.000  0.499  0.501  0.000  0.000  0.000  0.000  0.000
  0.000  0.000  0.000  0.501  0.499  0.000  0.000  0.000  0.000  0.000
  0.000  0.507  0.493  0.000  0.000  0.000  0.000  0.000  0.000  0.000
  0.000  0.493  0.507  0.000  0.000  0.000  0.000  0.000  0.000  0.000
 occupations, | n_(i1, i2)^(sigma1, sigma2) |:
  0.802  0.000  0.000  0.000  0.000  0.000  0.008  0.008  0.000  0.000
  0.000  0.742  0.004  0.000  0.000  0.006  0.000  0.000  0.004  0.004
  0.000  0.004  0.742  0.000  0.000  0.006  0.000  0.000  0.004  0.004
  0.000  0.000  0.000  0.750  0.010  0.000  0.004  0.004  0.000  0.000
  0.000  0.000  0.000  0.010  0.750  0.000  0.004  0.004  0.000  0.000
  0.000  0.006  0.006  0.000  0.000  0.122  0.000  0.000  0.000  0.000
  0.008  0.000  0.000  0.004  0.004  0.000  0.303  0.004  0.000  0.000
  0.008  0.000  0.000  0.004  0.004  0.000  0.004  0.303  0.000  0.000
  0.000  0.004  0.004  0.000  0.000  0.000  0.000  0.000  0.171  0.001
  0.000  0.004  0.004  0.000  0.000  0.000  0.000  0.000  0.001  0.171
atomic mx, my, mz =    -0.000259    0.000290    2.716810
atom   22   Tr[ns(na)] (up, down, total) =   3.78919  1.06901  4.85820
 eigenvalues: 
  0.122  0.170  0.171  0.299  0.307  0.738  0.741  0.747  0.761  0.804
 eigenvectors:
  0.000  0.000  0.000  0.000  0.001  0.000  0.000  0.000  0.000  0.999
  0.000  0.000  0.000  0.000  0.000  0.500  0.000  0.499  0.000  0.000
  0.000  0.000  0.000  0.000  0.000  0.499  0.000  0.500  0.000  0.000
  0.000  0.000  0.000  0.000  0.000  0.000  0.499  0.000  0.501  0.000
  0.000  0.000  0.000  0.000  0.000  0.000  0.501  0.000  0.499  0.000
  1.000  0.000  0.000  0.000  0.000  0.000  0.000  0.000  0.000  0.000
  0.000  0.000  0.000  0.500  0.500  0.000  0.000  0.000  0.000  0.000
  0.000  0.000  0.000  0.500  0.500  0.000  0.000  0.000  0.000  0.000
  0.000  0.501  0.499  0.000  0.000  0.000  0.000  0.000  0.000  0.000
  0.000  0.499  0.501  0.000  0.000  0.000  0.000  0.000  0.000  0.000
 occupations, | n_(i1, i2)^(sigma1, sigma2) |:
  0.803  0.000  0.000  0.000  0.000  0.000  0.008  0.008  0.000  0.000
  0.000  0.742  0.004  0.000  0.000  0.006  0.000  0.000  0.004  0.004
  0.000  0.004  0.742  0.000  0.000  0.006  0.000  0.000  0.004  0.004
  0.000  0.000  0.000  0.751  0.010  0.000  0.004  0.004  0.000  0.000
  0.000  0.000  0.000  0.010  0.751  0.000  0.004  0.004  0.000  0.000
  0.000  0.006  0.006  0.000  0.000  0.122  0.000  0.000  0.000  0.000
  0.008  0.000  0.000  0.004  0.004  0.000  0.303  0.004  0.000  0.000
  0.008  0.000  0.000  0.004  0.004  0.000  0.004  0.303  0.000  0.000
  0.000  0.004  0.004  0.000  0.000  0.000  0.000  0.000  0.171  0.001
  0.000  0.004  0.004  0.000  0.000  0.000  0.000  0.000  0.001  0.171
atomic mx, my, mz =     0.000094    0.000119    2.720183
atom   25   Tr[ns(na)] (up, down, total) =   3.78919  1.06901  4.85820
 eigenvalues: 
  0.122  0.170  0.171  0.299  0.307  0.738  0.741  0.747  0.761  0.804
 eigenvectors:
  0.000  0.000  0.000  0.000  0.001  0.000  0.000  0.000  0.000  0.999
  0.000  0.000  0.000  0.000  0.000  0.500  0.000  0.499  0.000  0.000
  0.000  0.000  0.000  0.000  0.000  0.499  0.000  0.500  0.000  0.000
  0.000  0.000  0.000  0.000  0.000  0.000  0.500  0.000  0.500  0.000
  0.000  0.000  0.000  0.000  0.000  0.000  0.500  0.000  0.499  0.000
  1.000  0.000  0.000  0.000  0.000  0.000  0.000  0.000  0.000  0.000
  0.000  0.000  0.000  0.500  0.500  0.000  0.000  0.000  0.000  0.000
  0.000  0.000  0.000  0.500  0.500  0.000  0.000  0.000  0.000  0.000
  0.000  0.501  0.498  0.000  0.000  0.000  0.000  0.000  0.000  0.000
  0.000  0.499  0.501  0.000  0.000  0.000  0.000  0.000  0.000  0.000
 occupations, | n_(i1, i2)^(sigma1, sigma2) |:
  0.803  0.000  0.000  0.000  0.000  0.000  0.008  0.008  0.000  0.000
  0.000  0.742  0.004  0.000  0.000  0.006  0.000  0.000  0.004  0.004
  0.000  0.004  0.742  0.000  0.000  0.006  0.000  0.000  0.004  0.004
  0.000  0.000  0.000  0.751  0.010  0.000  0.004  0.004  0.000  0.000
  0.000  0.000  0.000  0.010  0.751  0.000  0.004  0.004  0.000  0.000
  0.000  0.006  0.006  0.000  0.000  0.122  0.000  0.000  0.000  0.000
  0.008  0.000  0.000  0.004  0.004  0.000  0.303  0.004  0.000  0.000
  0.008  0.000  0.000  0.004  0.004  0.000  0.004  0.303  0.000  0.000
  0.000  0.004  0.004  0.000  0.000  0.000  0.000  0.000  0.171  0.001
  0.000  0.004  0.004  0.000  0.000  0.000  0.000  0.000  0.001  0.171
atomic mx, my, mz =    -0.000150    0.000013    2.720183
atom   28   Tr[ns(na)] (up, down, total) =   3.78531  1.06850  4.85381
 eigenvalues: 
  0.122  0.170  0.171  0.298  0.307  0.737  0.740  0.746  0.760  0.802
 eigenvectors:
  0.000  0.000  0.000  0.000  0.001  0.000  0.000  0.000  0.000  0.999
  0.000  0.000  0.000  0.000  0.000  0.500  0.000  0.500  0.000  0.000
  0.000  0.000  0.000  0.000  0.000  0.500  0.000  0.499  0.000  0.000
  0.000  0.000  0.000  0.000  0.000  0.000  0.500  0.000  0.499  0.000
  0.000  0.000  0.000  0.000  0.000  0.000  0.500  0.000  0.500  0.000
  1.000  0.000  0.000  0.000  0.000  0.000  0.000  0.000  0.000  0.000
  0.000  0.000  0.000  0.499  0.501  0.000  0.000  0.000  0.000  0.000
  0.000  0.000  0.000  0.501  0.498  0.000  0.000  0.000  0.000  0.000
  0.000  0.508  0.491  0.000  0.000  0.000  0.000  0.000  0.000  0.000
  0.000  0.492  0.508  0.000  0.000  0.000  0.000  0.000  0.000  0.000
 occupations, | n_(i1, i2)^(sigma1, sigma2) |:
  0.802  0.000  0.000  0.000  0.000  0.000  0.008  0.008  0.000  0.000
  0.000  0.742  0.004  0.000  0.000  0.006  0.000  0.000  0.004  0.004
  0.000  0.004  0.742  0.000  0.000  0.006  0.000  0.000  0.004  0.004
  0.000  0.000  0.000  0.750  0.010  0.000  0.004  0.004  0.000  0.000
  0.000  0.000  0.000  0.010  0.750  0.000  0.004  0.004  0.000  0.000
  0.000  0.006  0.006  0.000  0.000  0.122  0.000  0.000  0.000  0.000
  0.008  0.000  0.000  0.004  0.004  0.000  0.303  0.004  0.000  0.000
  0.008  0.000  0.000  0.004  0.004  0.000  0.004  0.303  0.000  0.000
  0.000  0.004  0.004  0.000  0.000  0.000  0.000  0.000  0.171  0.001
  0.000  0.004  0.004  0.000  0.000  0.000  0.000  0.000  0.001  0.171
atomic mx, my, mz =     0.000070    0.000072    2.716810
atom   31   Tr[ns(na)] (up, down, total) =   3.78351  1.06841  4.85191
 eigenvalues: 
  0.122  0.170  0.171  0.298  0.307  0.737  0.740  0.746  0.760  0.802
 eigenvectors:
  0.000  0.000  0.000  0.000  0.001  0.000  0.000  0.000  0.000  0.999
  0.000  0.000  0.000  0.000  0.000  0.498  0.000  0.502  0.000  0.000
  0.000  0.000  0.000  0.000  0.000  0.502  0.000  0.498  0.000  0.000
[...]
   -13.9250 -13.9250 -13.9250 -13.9250 -13.9250 -13.9250 -13.8869 -13.8815
   -13.8815 -13.8815 -13.8177 -13.7814 -13.5689 -13.5689 -13.5689 -13.4185
    -7.5456  -7.5456  -7.5456  -7.3005  -7.3005  -7.3005  -7.3005  -7.3005
    -7.3005  -7.1080  -7.0004  -7.0004  -7.0004  -6.9853  -6.9853  -6.9853
    -6.6323  -6.6323  -6.6323  -6.3580  -6.0897  -6.0897  -6.0897  -6.0683
    -6.0307  -6.0307  -6.0307  -5.8983  -5.8983  -5.8983  -5.8983  -5.8983
    -5.8983  -5.8523  -5.7941  -5.7941  -5.7941  -5.7694  -5.7694  -5.7694
    -5.7694  -5.7694  -5.7694  -5.6870  -5.6870  -5.6870  -5.5287  -5.5287
    -5.5287  -5.4703  -5.4703  -5.4703  -5.4702  -5.4702  -5.4702  -5.4519
    -5.4519  -5.4519  -5.4519  -5.4519  -5.4519  -5.3062  -5.2061  -5.2061
    -5.2061  -5.1131  -5.1131  -5.1130  -5.0552  -4.8067  -4.8067  -4.8067
    -4.7451  -4.7451  -4.7451  -4.7350  -4.6607  -4.6607  -4.6607  -4.6287
    -4.6287  -4.6287  -4.6287  -4.6287  -4.6287  -4.5392  -4.5392  -4.5392
    -4.5161  -4.5161  -4.5161  -4.4913  -4.4913  -4.4913  -4.4058  -4.4058
    -4.4058  -4.4058  -4.4058  -4.4057  -4.1963  -4.1479  -4.1479  -4.1479
    -4.1410  -4.1410  -4.1410  -4.1227  -4.1227  -4.1227  -4.1227  -4.1227
    -4.1227  -4.1063  -4.1063  -4.1062  -4.0914  -4.0914  -4.0913  -4.0576
    -4.0289  -4.0289  -4.0289  -3.9215  -3.9215  -3.9215  -3.8338  -3.7210
    -3.7210  -3.7210  -3.7046  -3.7046  -3.7046  -3.6910  -3.5630  -3.5630
    -3.5630  -3.5630  -3.5630  -3.5630  -3.4389  -3.4389  -3.4389  -3.3213
    -3.1782  -3.1782  -3.1782  -3.1055  -3.1055  -3.1055  -3.0193  -3.0193
    -3.0193  -3.0193  -3.0193  -3.0193  -2.9963  -2.9963  -2.9963  -2.9713
    -2.9713  -2.9713  -2.9673  -2.9673  -2.9673  -2.9220  -2.9220  -2.9220
    -2.9220  -2.9220  -2.9220  -2.6938  -2.6938  -2.6938  -2.6938  -2.6938
    -2.6938  -2.5698  -2.5698  -2.5698  -2.5144  -2.5144  -2.5144  -2.5144
    -2.5144  -2.5144  -2.4926  -2.4926  -2.4926  -2.4709  -2.3724  -2.3724
    -2.3724  -2.3525  -2.3525  -2.3525  -2.3205  -2.3205  -2.3205  -2.2828
    -2.2828  -2.2828  -2.2506  -2.2506  -2.2506  -2.0134  -2.0134  -2.0134
    -0.9580  -0.4048  -0.4048  -0.4048  -0.0580  -0.0580  -0.0580  -0.0580
    -0.0580  -0.0580  -0.0337  -0.0337  -0.0337   0.2163   0.2163   0.2163
     0.2163   0.2163   0.2163   0.3367   0.3367   0.3367   0.5360   0.5361
     0.5361   0.5512   0.5512   0.5512   0.5660   0.5660   0.5660   0.7144
     0.7144   0.7144   0.8241   0.8241   0.8241   0.8241   0.8241   0.8241
     0.9347   0.9347   0.9347   0.9468   0.9468   0.9468   1.0964   1.0965
     1.0965   1.3138   1.3138   1.3138   1.3636   1.4289   1.4289   1.4289
     1.4779   1.4779   1.4780   1.4780   1.4780   1.4780   1.4887   1.5058
     1.6241   1.6241   1.6241   1.7932   1.7932   1.7932   1.8424   1.8424
     1.8424   2.0062   2.0326   2.0326   2.0326   2.1850   2.3468   2.3468

          k =-0.1667 0.2887 0.0000 (287748 PWs)   bands (ev):

   -56.3393 -56.3217 -56.3217 -56.3199 -56.3196 -56.3196 -56.3127 -56.3127
   -56.3118 -56.3117 -56.3061 -56.3061 -56.3046 -56.3018 -56.3018 -56.2955
   -55.4370 -55.4369 -55.4361 -55.4360 -55.4288 -55.4280 -55.4280 -55.4271
   -55.4235 -55.4225 -55.4225 -55.4202 -55.4201 -55.4064 -55.4064 -55.4053
   -33.8249 -33.8248 -33.8079 -33.8040 -33.7903 -33.7874 -33.7874 -33.7843
   -33.7843 -33.7583 -33.7583 -33.7444 -33.7444 -33.7131 -33.7131 -33.6777
   -33.3606 -33.3605 -33.3577 -33.3571 -33.3565 -33.3564 -33.3492 -33.3491
   -33.3481 -33.3481 -33.3461 -33.3408 -33.3407 -33.3355 -33.3355 -33.3274
   -32.0684 -32.0113 -32.0113 -32.0074 -32.0074 -31.9903 -31.9903 -31.9888
   -31.9646 -31.9453 -31.9453 -31.9092 -31.9092 -31.8735 -31.8735 -31.8157
   -31.4027 -31.4027 -31.3977 -31.3931 -31.3931 -31.3925 -31.3806 -31.3806
   -31.3795 -31.3795 -31.3759 -31.3638 -31.3637 -31.3516 -31.3516 -31.3329
   -31.1184 -31.1145 -31.1145 -31.1109 -31.1108 -31.1048 -31.1033 -31.1033
   -31.0997 -31.0997 -31.0958 -31.0958 -31.0939 -31.0921 -31.0921 -31.0918
   -30.9490 -30.9489 -30.9407 -30.9219 -30.9219 -30.9177 -30.9105 -30.9021
   -30.9021 -30.8769 -30.8769 -30.8550 -30.8550 -30.8139 -30.8139 -30.7720
   -15.2316 -15.0492 -14.8678 -14.8678 -14.7527 -14.7527 -14.5376 -14.5376
   -14.5123 -14.5123 -14.3417 -14.3417 -14.3335 -14.2608 -14.2608 -14.2482
   -14.2482 -14.1626 -14.1590 -14.1590 -14.1057 -14.1057 -14.1002 -14.1002
   -14.0916 -14.0916 -14.0908 -14.0908 -14.0777 -14.0777 -14.0685 -14.0621
   -14.0474 -14.0474 -14.0459 -14.0459 -14.0298 -14.0007 -14.0007 -13.9965
   -13.9929 -13.9761 -13.9623 -13.9623 -13.9593 -13.9593 -13.9502 -13.9502
   -13.9110 -13.9110 -13.9050 -13.8792 -13.8718 -13.8510 -13.8510 -13.8452
   -13.8277 -13.8277 -13.7470 -13.7470 -13.6406 -13.5726 -13.5726 -13.4965
    -7.8881  -7.4423  -7.4423  -7.3801  -7.3020  -7.3020  -7.2094  -7.2094
    -7.0770  -7.0770  -7.0527  -7.0527  -7.0209  -6.9556  -6.8865  -6.8865
    -6.7238  -6.7238  -6.5685  -6.2796  -6.2487  -6.1964  -6.1964  -6.0975
    -6.0524  -6.0524  -6.0331  -6.0331  -6.0224  -6.0224  -5.9371  -5.9049
    -5.9042  -5.9042  -5.8662  -5.8283  -5.8283  -5.7701  -5.7701  -5.7403
    -5.7403  -5.7187  -5.7187  -5.6991  -5.6991  -5.6614  -5.6614  -5.5726
    -5.5726  -5.5489  -5.5277  -5.4930  -5.4930  -5.3827  -5.3827  -5.3456
    -5.3456  -5.3155  -5.2683  -5.2428  -5.1531  -5.1446  -5.0977  -5.0977
    -5.0636  -5.0636  -5.0504  -4.9911  -4.9911  -4.9856  -4.9856  -4.8666
    -4.8666  -4.8058  -4.7699  -4.7698  -4.6892  -4.6644  -4.6644  -4.6243
    -4.6143  -4.6143  -4.5358  -4.5358  -4.5045  -4.5045  -4.4853  -4.4718
    -4.4718  -4.4585  -4.4585  -4.4364  -4.3987  -4.3987  -4.3809  -4.3809
    -4.3631  -4.3390  -4.3390  -4.3329  -4.3329  -4.2860  -4.2860  -4.2695
    -4.2695  -4.2649  -4.2649  -4.2533  -4.2458  -4.2458  -4.2415  -4.1984
    -4.1902  -4.1741  -4.1741  -4.1648  -4.1648  -4.0766  -4.0694  -4.0694
    -4.0678  -4.0567  -4.0567  -3.8881  -3.8881  -3.8584  -3.8584  -3.8187
    -3.8187  -3.7492  -3.7492  -3.6862  -3.6862  -3.6385  -3.5653  -3.5653
    -3.5594  -3.5594  -3.3803  -3.3003  -3.2829  -3.2554  -3.2554  -3.2062
    -3.1807  -3.1614  -3.1614  -3.1440  -3.1368  -3.1368  -3.1303  -3.1303
    -3.1208  -3.1208  -3.1194  -3.1194  -3.1032  -3.0896  -3.0896  -3.0843
    -3.0843  -3.0400  -3.0246  -3.0171  -3.0171  -2.8536  -2.8536  -2.8400
    -2.8400  -2.7987  -2.7987  -2.7906  -2.7906  -2.7036  -2.6385  -2.6385
    -2.6357  -2.6357  -2.6286  -2.6240  -2.6173  -2.5733  -2.5733  -2.5429
    -2.5428  -2.5207  -2.4456  -2.4456  -2.4236  -2.3905  -2.3905  -2.3885
    -2.3885  -2.3421  -2.3421  -2.3388  -2.3375  -2.3375  -2.2928  -2.2744
    -2.2168  -2.2168  -2.2041  -2.2041  -2.0901  -2.0669  -2.0669  -2.0212
    -0.7078  -0.4376  -0.4376  -0.3075  -0.2315  -0.2315  -0.0224  -0.0224
     0.0496   0.0808   0.0808   0.1081   0.1081   0.1361   0.1361   0.1631
     0.2133   0.2133   0.2342   0.2342   0.3452   0.3452   0.3804   0.4314
     0.4314   0.6219   0.6219   0.6384   0.6384   0.7063   0.7063   0.7129
     0.7129   0.7808   0.7808   0.7998   0.8100   0.8100   0.8790   0.8790
     0.9158   0.9280   0.9718   1.0038   1.1244   1.1630   1.1942   1.1943
     1.2136   1.2136   1.2343   1.2519   1.2519   1.3139   1.3139   1.3145
     1.3603   1.4020   1.4020   1.4565   1.4565   1.5139   1.5444   1.5445
     1.5593   1.5594   1.7385   1.8069   1.8335   1.8335   1.8600   1.8606
     1.8606   1.8783   1.8783   1.9405   1.9808   1.9812   2.2240   2.2240

          k =-0.1667 0.4811 0.0000 (287831 PWs)   bands (ev):

   -56.3334 -56.3263 -56.3208 -56.3185 -56.3169 -56.3151 -56.3140 -56.3116
   -56.3113 -56.3112 -56.3094 -56.3089 -56.3074 -56.3065 -56.3015 -56.2938
   -55.4373 -55.4368 -55.4345 -55.4344 -55.4319 -55.4307 -55.4254 -55.4240
   -55.4235 -55.4205 -55.4189 -55.4175 -55.4154 -55.4127 -55.4116 -55.4099
   -33.8293 -33.8191 -33.8118 -33.8112 -33.7853 -33.7844 -33.7806 -33.7749
   -33.7749 -33.7707 -33.7660 -33.7592 -33.7429 -33.7092 -33.6987 -33.6865
   -33.3595 -33.3579 -33.3576 -33.3576 -33.3547 -33.3540 -33.3537 -33.3522
   -33.3508 -33.3482 -33.3447 -33.3428 -33.3395 -33.3348 -33.3320 -33.3293
   -32.0761 -32.0130 -32.0047 -32.0015 -31.9970 -31.9946 -31.9877 -31.9798
   -31.9652 -31.9646 -31.9457 -31.9268 -31.9053 -31.8692 -31.8501 -31.8302
   -31.3999 -31.3972 -31.3963 -31.3918 -31.3917 -31.3906 -31.3897 -31.3863
   -31.3851 -31.3796 -31.3727 -31.3685 -31.3612 -31.3499 -31.3436 -31.3372
   -31.1178 -31.1166 -31.1150 -31.1119 -31.1090 -31.1069 -31.1005 -31.0990
   -31.0990 -31.0980 -31.0980 -31.0959 -31.0950 -31.0945 -31.0931 -31.0914
   -30.9538 -30.9473 -30.9445 -30.9196 -30.9144 -30.9111 -30.9075 -30.8957
   -30.8944 -30.8925 -30.8858 -30.8736 -30.8519 -30.8087 -30.7960 -30.7818
   -15.1485 -15.0260 -14.9767 -14.9066 -14.8754 -14.7822 -14.5707 -14.5325
   -14.3982 -14.3718 -14.3147 -14.2862 -14.2789 -14.2580 -14.2573 -14.2197
   -14.1937 -14.1671 -14.1662 -14.1274 -14.1191 -14.1106 -14.1048 -14.0971
   -14.0953 -14.0905 -14.0883 -14.0788 -14.0732 -14.0720 -14.0668 -14.0622
   -14.0619 -14.0553 -14.0537 -14.0442 -14.0438 -14.0360 -14.0327 -14.0159
   -14.0097 -14.0066 -13.9869 -13.9811 -13.9719 -13.9609 -13.9572 -13.9498
   -13.9438 -13.9273 -13.8849 -13.8793 -13.8765 -13.8659 -13.8524 -13.8515
   -13.8310 -13.8306 -13.8079 -13.7802 -13.6114 -13.5884 -13.5155 -13.4534
    -7.7306  -7.5209  -7.3957  -7.3402  -7.3388  -7.3138  -7.2311  -7.2045
    -7.2042  -7.1611  -7.0534  -7.0505  -7.0064  -7.0062  -7.0021  -6.8218
    -6.8075  -6.6056  -6.4490  -6.3774  -6.3218  -6.1519  -6.1398  -6.0761
    -6.0664  -6.0459  -5.9563  -5.9238  -5.8821  -5.8773  -5.8741  -5.8732
    -5.8549  -5.8301  -5.8300  -5.8095  -5.7863  -5.7579  -5.7394  -5.7157
    -5.7081  -5.7036  -5.6994  -5.6921  -5.6782  -5.6637  -5.6515  -5.6496
    -5.6191  -5.5979  -5.5886  -5.5761  -5.5494  -5.5208  -5.5193  -5.4571
    -5.3572  -5.3259  -5.3081  -5.2671  -5.2663  -5.2493  -5.2332  -5.2176
    -5.1940  -5.1396  -5.1381  -5.1209  -4.9726  -4.9367  -4.8618  -4.8185
    -4.8005  -4.7196  -4.7138  -4.7046  -4.6997  -4.6903  -4.6811  -4.6367
    -4.6317  -4.6134  -4.5964  -4.5800  -4.5790  -4.5362  -4.5171  -4.5158
    -4.4946  -4.4776  -4.4760  -4.4685  -4.4351  -4.4349  -4.3819  -4.3618
    -4.3509  -4.3391  -4.3207  -4.3174  -4.3109  -4.2959  -4.2941  -4.2437
    -4.2296  -4.1987  -4.1826  -4.1814  -4.1729  -4.1713  -4.1632  -4.1451
    -4.1230  -4.1228  -4.0967  -4.0156  -4.0140  -4.0133  -4.0106  -3.9904
    -3.9780  -3.9745  -3.9574  -3.9505  -3.9464  -3.9268  -3.9022  -3.8403
    -3.8310  -3.7879  -3.7669  -3.7525  -3.7521  -3.6591  -3.5302  -3.5093
    -3.5085  -3.4623  -3.4470  -3.4370  -3.4297  -3.4041  -3.3447  -3.2997
    -3.2719  -3.2354  -3.1976  -3.1869  -3.1840  -3.1185  -3.1072  -3.1065
    -3.1010  -3.0988  -3.0935  -3.0778  -3.0501  -3.0422  -3.0315  -3.0151
    -2.9961  -2.9792  -2.9464  -2.9420  -2.9149  -2.9002  -2.8787  -2.8459
    -2.8297  -2.8131  -2.8100  -2.8017  -2.7820  -2.7267  -2.7081  -2.6786
    -2.6270  -2.5861  -2.5811  -2.5780  -2.5756  -2.5743  -2.5501  -2.5500
    -2.5210  -2.5161  -2.5061  -2.4489  -2.4485  -2.4248  -2.4213  -2.4115
    -2.3657  -2.3360  -2.3105  -2.3075  -2.2991  -2.2730  -2.2699  -2.2660
    -2.2656  -2.2383  -2.2308  -2.1711  -2.1162  -2.0750  -2.0404  -2.0307
    -0.8941  -0.5814  -0.3868  -0.3352  -0.1505  -0.1463  -0.0767  -0.0635
    -0.0405  -0.0355  -0.0253   0.0082   0.0832   0.1598   0.1708   0.1868
     0.2086   0.2094   0.2245   0.2647   0.3456   0.3923   0.4584   0.5211
     0.5318   0.5396   0.5618   0.6383   0.6436   0.6674   0.6986   0.7029
     0.7239   0.7254   0.7581   0.7699   0.7875   0.7968   0.8160   0.8166
     0.9078   0.9379   0.9496   1.0859   1.0898   1.0950   1.1276   1.1520
     1.2091   1.2268   1.2490   1.2521   1.2805   1.2981   1.2994   1.3438
     1.4354   1.4502   1.4852   1.5133   1.5288   1.5806   1.5837   1.6058
     1.6420   1.6868   1.6896   1.7223   1.7553   1.7579   1.8463   1.8473
     1.8901   1.8981   1.9052   1.9313   2.0493   2.0882   2.0949   2.1536

          k =-0.3333 0.5774 0.0000 (287970 PWs)   bands (ev):

   -56.3273 -56.3273 -56.3273 -56.3141 -56.3141 -56.3141 -56.3140 -56.3140
   -56.3140 -56.3083 -56.3083 -56.3082 -56.3077 -56.3077 -56.3077 -56.2927
   -55.4353 -55.4353 -55.4352 -55.4341 -55.4341 -55.4340 -55.4246 -55.4182
   -55.4182 -55.4182 -55.4182 -55.4182 -55.4182 -55.4144 -55.4144 -55.4143
   -33.8213 -33.8213 -33.8213 -33.8127 -33.7770 -33.7770 -33.7770 -33.7770
   -33.7770 -33.7770 -33.7589 -33.7589 -33.7588 -33.6965 -33.6965 -33.6965
   -33.3574 -33.3563 -33.3563 -33.3563 -33.3562 -33.3562 -33.3562 -33.3511
   -33.3510 -33.3510 -33.3422 -33.3422 -33.3421 -33.3316 -33.3316 -33.3316
   -32.0800 -32.0042 -32.0042 -32.0041 -31.9834 -31.9834 -31.9834 -31.9834
   -31.9834 -31.9833 -31.9255 -31.9255 -31.9254 -31.8475 -31.8475 -31.8474
   -31.3940 -31.3940 -31.3940 -31.3940 -31.3940 -31.3940 -31.3911 -31.3856
   -31.3856 -31.3856 -31.3672 -31.3672 -31.3671 -31.3427 -31.3427 -31.3427
   -31.1168 -31.1168 -31.1168 -31.1096 -31.1096 -31.1095 -31.0975 -31.0975
   -31.0975 -31.0965 -31.0965 -31.0965 -31.0965 -31.0964 -31.0964 -31.0913
   -30.9499 -30.9499 -30.9499 -30.9201 -30.9020 -30.9020 -30.9020 -30.9020
   -30.9020 -30.9020 -30.8723 -30.8723 -30.8722 -30.7934 -30.7934 -30.7933
   -15.0462 -15.0462 -15.0462 -14.8919 -14.8919 -14.8919 -14.4060 -14.4060
   -14.4060 -14.3863 -14.3863 -14.3863 -14.2911 -14.2911 -14.2911 -14.1473
   -14.1473 -14.1473 -14.1473 -14.1473 -14.1473 -14.1134 -14.1134 -14.1134
   -14.0946 -14.0946 -14.0946 -14.0884 -14.0884 -14.0884 -14.0540 -14.0540
   -14.0540 -14.0540 -14.0540 -14.0540 -14.0007 -14.0007 -14.0007 -14.0007
   -14.0007 -14.0007 -13.9742 -13.9742 -13.9742 -13.9309 -13.9309 -13.9309
   -13.9309 -13.9309 -13.9309 -13.9101 -13.9101 -13.9101 -13.8557 -13.8557
   -13.8557 -13.8409 -13.8401 -13.8248 -13.5570 -13.5570 -13.5570 -13.4357
    -7.5517  -7.5517  -7.5517  -7.2882  -7.2882  -7.2882  -7.2882  -7.2882
    -7.2882  -7.1004  -7.0296  -7.0296  -7.0296  -6.9633  -6.9633  -6.9633
    -6.6544  -6.6544  -6.6544  -6.3541  -6.2508  -6.1019  -6.1019  -6.1019
    -5.8962  -5.8962  -5.8962  -5.8856  -5.8856  -5.8856  -5.8645  -5.8645
    -5.8645  -5.8645  -5.8645  -5.8644  -5.7726  -5.7726  -5.7726  -5.7726
    -5.7726  -5.7726  -5.7053  -5.7053  -5.7053  -5.6749  -5.5259  -5.5259
    -5.5259  -5.5259  -5.5259  -5.5259  -5.4841  -5.4841  -5.4841  -5.4501
    -5.4501  -5.4501  -5.4501  -5.4501  -5.4501  -5.4145  -5.2060  -5.2060
    -5.2060  -5.1982  -5.1982  -5.1982  -4.8760  -4.8576  -4.7948  -4.7948
    -4.7947  -4.6837  -4.6837  -4.6837  -4.6837  -4.6837  -4.6837  -4.6272
    -4.6272  -4.6272  -4.6239  -4.6239  -4.6239  -4.5530  -4.5530  -4.5530
    -4.4468  -4.4468  -4.4467  -4.4433  -4.4433  -4.4433  -4.4011  -4.4011
    -4.4011  -4.4011  -4.4011  -4.4011  -4.2821  -4.2821  -4.2821  -4.2110
    -4.2110  -4.2110  -4.1537  -4.1461  -4.1461  -4.1461  -4.1142  -4.1142
    -4.1142  -4.0643  -4.0643  -4.0643  -4.0643  -4.0643  -4.0643  -3.9818
    -3.9530  -3.9115  -3.9115  -3.9115  -3.7975  -3.7975  -3.7975  -3.7065
    -3.7065  -3.7065  -3.6724  -3.6724  -3.6724  -3.6304  -3.6190  -3.6190
    -3.6190  -3.6190  -3.6190  -3.6190  -3.4613  -3.4613  -3.4613  -3.3464
    -3.1916  -3.1915  -3.1915  -3.1413  -3.1413  -3.1413  -3.1408  -3.1408
    -3.1408  -3.0817  -3.0817  -3.0817  -3.0406  -3.0406  -3.0406  -2.9618
    -2.9618  -2.9618  -2.9618  -2.9618  -2.9618  -2.9164  -2.9164  -2.9164
    -2.9164  -2.9164  -2.9164  -2.6269  -2.6269  -2.6269  -2.6108  -2.6108
    -2.6108  -2.6108  -2.6108  -2.6108  -2.5495  -2.5495  -2.5495  -2.4898
    -2.4898  -2.4898  -2.4898  -2.4898  -2.4898  -2.4653  -2.4653  -2.4653
    -2.3905  -2.3905  -2.3905  -2.2724  -2.2724  -2.2724  -2.2057  -2.2057
    -2.2057  -2.2012  -2.2012  -2.2012  -2.1736  -2.0480  -2.0480  -2.0480
    -0.9918  -0.4543  -0.4543  -0.4542  -0.0922  -0.0922  -0.0922  -0.0922
    -0.0922  -0.0922  -0.0085  -0.0085  -0.0084   0.1854   0.1854   0.1854
     0.1854   0.1854   0.1854   0.3580   0.3580   0.3580   0.5759   0.5759
     0.5759   0.6266   0.6266   0.6266   0.6362   0.6362   0.6362   0.7242
     0.7242   0.7242   0.7243   0.7243   0.7243   0.7399   0.7399   0.7399
     0.9154   0.9154   0.9154   1.1068   1.1068   1.1068   1.1669   1.2037
     1.2037   1.2037   1.2098   1.2098   1.2098   1.2657   1.4939   1.5400
     1.5400   1.5400   1.5400   1.5400   1.5400   1.5457   1.5457   1.5457
     1.5786   1.5786   1.5786   1.7774   1.7774   1.7774   1.8010   1.8010
     1.8010   2.0326   2.0887   2.0887   2.0887   2.1191   2.3026   2.3471

     the Fermi energy is    -1.3856 ev

!    total energy              =  -11412.54486975 Ry

     total all-electron energy =   -277784.274219 Ry
     estimated scf accuracy    <       0.00000002 Ry
     smearing contrib. (-TS)   =       0.00065096 Ry
     internal energy E=F+TS    =  -11412.54552072 Ry

     The total energy is F=E-TS. E is the sum of the following terms:
     one-electron contribution =  -17216.14528912 Ry
     hartree contribution      =    8645.78842497 Ry
     xc contribution           =    -505.56787835 Ry
     ewald contribution        =    6590.29862696 Ry
     Hubbard energy            =       8.80754604 Ry
     one-center paw contrib.   =   -8935.72695122 Ry

     total magnetization       =    -0.00     0.00    16.02 Bohr mag/cell
     absolute magnetization    =    38.03 Bohr mag/cell

     convergence has been achieved in  17 iterations

     Writing output data file ./tmp/adatom.save/
 
     init_run     :    217.72s CPU    220.59s WALL (       1 calls)
     electrons    :   8432.52s CPU   8492.50s WALL (       1 calls)

     Called by init_run:
     wfcinit      :    197.19s CPU    198.85s WALL (       1 calls)
     potinit      :      6.08s CPU      6.51s WALL (       1 calls)
     hinit0       :      7.30s CPU      7.53s WALL (       1 calls)

     Called by electrons:
     c_bands      :   6886.62s CPU   6928.87s WALL (      17 calls)
     sum_band     :   1370.15s CPU   1380.85s WALL (      17 calls)
     v_of_rho     :     17.77s CPU     18.51s WALL (      18 calls)
     newd         :     56.45s CPU     61.52s WALL (      18 calls)
     PAW_pot      :     28.09s CPU     28.48s WALL (      18 calls)
     mix_rho      :     76.45s CPU     77.34s WALL (      17 calls)

     Called by c_bands:
     init_us_2    :     10.60s CPU     10.73s WALL (     360 calls)
     cegterg      :   6775.39s CPU   6817.03s WALL (     170 calls)

     Called by *egterg:
     cdiaghg      :    202.07s CPU    202.95s WALL (    1293 calls)
     h_psi        :   4998.94s CPU   5023.67s WALL (    1303 calls)
     s_psi        :    296.43s CPU    297.31s WALL (    1313 calls)
     g_psi        :      7.16s CPU      7.21s WALL (    1123 calls)

     Called by h_psi:
     h_psi:calbec :    270.88s CPU    271.45s WALL (    1303 calls)
     vloc_psi     :   2779.04s CPU   2792.46s WALL (    1303 calls)
     add_vuspsi   :    291.13s CPU    292.66s WALL (    1303 calls)
     vhpsi        :   1644.06s CPU   1647.58s WALL (    1303 calls)

     General routines
     calbec       :    369.89s CPU    370.66s WALL (    1483 calls)
     fft          :      8.54s CPU      8.93s WALL (     652 calls)
     ffts         :     42.56s CPU     42.77s WALL (   11458 calls)
     fftw         :   2204.30s CPU   2213.61s WALL ( 1073340 calls)
     interpolate  :      1.35s CPU      1.37s WALL (      72 calls)
     davcio       :      0.04s CPU      1.34s WALL (      10 calls)
 
     Parallel routines

     Hubbard U routines
     new_ns_nc    :    298.93s CPU    299.55s WALL (      17 calls)
     vhpsi        :   1644.06s CPU   1647.58s WALL (    1303 calls)
 
     PWSCF        :      2h24m CPU      2h29m WALL

 
   This run was terminated on:  15: 5:50   8Sep2023            

=------------------------------------------------------------------------------=
   JOB DONE.
=------------------------------------------------------------------------------=
