 
             +---------------------------------------------------+
             |                                                   |
             |                   WANNIER90                       |
             |                                                   |
             +---------------------------------------------------+
             |                                                   |
             |        Welcome to the Maximally-Localized         |
             |        Generalized Wannier Functions code         |
             |            http://www.wannier.org                 |
             |                                                   |
             |                                                   |
             |  Wannier90 Developer Group:                       |
             |    Giovanni Pizzi    (EPFL)                       |
             |    Valerio Vitale    (Cambridge)                  |
             |    David Vanderbilt  (Rutgers University)         |
             |    Nicola Marzari    (EPFL)                       |
             |    Ivo Souza         (Universidad del Pais Vasco) |
             |    Arash A. Mostofi  (Imperial College London)    |
             |    Jonathan R. Yates (University of Oxford)       |
             |                                                   |
             |  For the full list of Wannier90 3.x authors,      |
             |  please check the code documentation and the      |
             |  README on the GitHub page of the code            |
             |                                                   |
             |                                                   |
             |  Please cite                                      |
             |                                                   |
             |  [ref] "Wannier90 as a community code:            |
             |        new features and applications",            |
             |        G. Pizzi et al., J. Phys. Cond. Matt. 32,  |
             |        165902 (2020).                             |
             |        http://doi.org/10.1088/1361-648X/ab51ff    |
             |                                                   |
             |  in any publications arising from the use of      |
             |  this code. For the method please cite            |
             |                                                   |
             |  [ref] "Maximally Localized Generalised Wannier   |
             |         Functions for Composite Energy Bands"     |
             |         N. Marzari and D. Vanderbilt              |
             |         Phys. Rev. B 56 12847 (1997)              |
             |                                                   |
             |  [ref] "Maximally Localized Wannier Functions     |
             |         for Entangled Energy Bands"               |
             |         I. Souza, N. Marzari and D. Vanderbilt    |
             |         Phys. Rev. B 65 035109 (2001)             |
             |                                                   |
             |                                                   |
             | Copyright (c) 1996-2020                           |
             |        The Wannier90 Developer Group and          |
             |        individual contributors                    |
             |                                                   |
             |      Release: 3.1.0        5th March    2020      |
             |                                                   |
             | This program is free software; you can            |
             | redistribute it and/or modify it under the terms  |
             | of the GNU General Public License as published by |
             | the Free Software Foundation; either version 2 of |
             | the License, or (at your option) any later version|
             |                                                   |
             | This program is distributed in the hope that it   |
             | will be useful, but WITHOUT ANY WARRANTY; without |
             | even the implied warranty of MERCHANTABILITY or   |
             | FITNESS FOR A PARTICULAR PURPOSE. See the GNU     |
             | General Public License for more details.          |
             |                                                   |
             | You should have received a copy of the GNU General|
             | Public License along with this program; if not,   |
             | write to the Free Software Foundation, Inc.,      |
             | 675 Mass Ave, Cambridge, MA 02139, USA.           |
             |                                                   |
             +---------------------------------------------------+
             |    Execution started on  8Sep2023 at 21:49:52     |
             +---------------------------------------------------+
 
 ******************************************************************************
 * -> Using CODATA 2006 constant values                                       *
 *    (http://physics.nist.gov/cuu/Constants/index.html)                      *
 * -> Using Bohr value from CODATA                                            *
 ******************************************************************************
 

 Running in parallel on  80 CPUs

 
                                    ------
                                    SYSTEM
                                    ------
 
                              Lattice Vectors (Ang)
                    a_1    13.784171   0.000000   0.000000
                    a_2    -6.892085  11.937442   0.000000
                    a_3     0.000000   0.000000  23.631430
 
                   Unit Cell Volume:    3888.49848  (Ang^3)
 
                        Reciprocal-Space Vectors (Ang^-1)
                    b_1     0.455826   0.263171   0.000000
                    b_2     0.000000   0.526343   0.000000
                    b_3     0.000000   0.000000   0.265883
  
 *----------------------------------------------------------------------------*
 |   Site       Fractional Coordinate          Cartesian Coordinate (Ang)     |
 +----------------------------------------------------------------------------+
 | Nb   1   0.00000   0.00000   0.07097   |    0.00000   0.00000   1.67715    |
 | Nb   2   0.25000   0.00000   0.07097   |    3.44604   0.00000   1.67715    |
 | Nb   3   0.50000   0.00000   0.07097   |    6.89209   0.00000   1.67715    |
 | Nb   4   0.75000   0.00000   0.07097   |   10.33813   0.00000   1.67715    |
 | Nb   5   0.75000   0.25000   0.07097   |    8.61511   2.98436   1.67715    |
 | Nb   6   0.75000   0.50000   0.07097   |    6.89209   5.96872   1.67715    |
 | Nb   7   0.75000   0.75000   0.07097   |    5.16906   8.95308   1.67715    |
 | Nb   8   0.50000   0.75000   0.07097   |    1.72302   8.95308   1.67715    |
 | Nb   9   0.25000   0.75000   0.07097   |   -1.72302   8.95308   1.67715    |
 | Nb  10   0.00000   0.75000   0.07097   |   -5.16906   8.95308   1.67715    |
 | Nb  11   0.50000   0.25000   0.07097   |    5.16906   2.98436   1.67715    |
 | Nb  12   0.50000   0.50000   0.07097   |    3.44604   5.96872   1.67715    |
 | Nb  13   0.25000   0.50000   0.07097   |    0.00000   5.96872   1.67715    |
 | Nb  14   0.25000   0.25000   0.07097   |    1.72302   2.98436   1.67715    |
 | Nb  15   0.00000   0.25000   0.07097   |   -1.72302   2.98436   1.67715    |
 | Nb  16   0.00000   0.50000   0.07097   |   -3.44604   5.96872   1.67715    |
 | Se   1   0.16667   0.08333   0.00000   |    1.72302   0.99479   0.00000    |
 | Se   2   0.16667   0.08333   0.14194   |    1.72302   0.99479   3.35430    |
 | Se   3   0.41667   0.08333   0.00000   |    5.16906   0.99479   0.00000    |
 | Se   4   0.41667   0.08333   0.14194   |    5.16906   0.99479   3.35430    |
 | Se   5   0.66667   0.08333   0.00000   |    8.61511   0.99479   0.00000    |
 | Se   6   0.66667   0.08333   0.14194   |    8.61511   0.99479   3.35430    |
 | Se   7   0.91667   0.08333   0.00000   |   12.06115   0.99479   0.00000    |
 | Se   8   0.91667   0.08333   0.14194   |   12.06115   0.99479   3.35430    |
 | Se   9   0.91667   0.33333   0.00000   |   10.33813   3.97915   0.00000    |
 | Se  10   0.91667   0.33333   0.14194   |   10.33813   3.97915   3.35430    |
 | Se  11   0.91667   0.58333   0.00000   |    8.61511   6.96351   0.00000    |
 | Se  12   0.91667   0.58333   0.14194   |    8.61511   6.96351   3.35430    |
 | Se  13   0.91667   0.83333   0.00000   |    6.89209   9.94787   0.00000    |
 | Se  14   0.91667   0.83333   0.14194   |    6.89209   9.94787   3.35430    |
 | Se  15   0.66667   0.83333   0.00000   |    3.44604   9.94787   0.00000    |
 | Se  16   0.66667   0.83333   0.14194   |    3.44604   9.94787   3.35430    |
 | Se  17   0.41667   0.83333   0.00000   |    0.00000   9.94787   0.00000    |
 | Se  18   0.41667   0.83333   0.14194   |    0.00000   9.94787   3.35430    |
 | Se  19   0.16667   0.83333   0.00000   |   -3.44604   9.94787   0.00000    |
 | Se  20   0.16667   0.83333   0.14194   |   -3.44604   9.94787   3.35430    |
 | Se  21   0.66667   0.33333   0.00000   |    6.89209   3.97915   0.00000    |
 | Se  22   0.66667   0.33333   0.14194   |    6.89209   3.97915   3.35430    |
 | Se  23   0.66667   0.58333   0.00000   |    5.16906   6.96351   0.00000    |
 | Se  24   0.66667   0.58333   0.14194   |    5.16906   6.96351   3.35430    |
 | Se  25   0.41667   0.58333   0.00000   |    1.72302   6.96351   0.00000    |
 | Se  26   0.41667   0.58333   0.14194   |    1.72302   6.96351   3.35430    |
 | Se  27   0.41667   0.33333   0.00000   |    3.44604   3.97915   0.00000    |
 | Se  28   0.41667   0.33333   0.14194   |    3.44604   3.97915   3.35430    |
 | Se  29   0.16667   0.33333   0.00000   |    0.00000   3.97915   0.00000    |
 | Se  30   0.16667   0.33333   0.14194   |    0.00000   3.97915   3.35430    |
 | Se  31   0.16667   0.58333   0.00000   |   -1.72302   6.96351   0.00000    |
 | Se  32   0.16667   0.58333   0.14194   |   -1.72302   6.96351   3.35430    |
 *----------------------------------------------------------------------------*
                                -----------
                                PROJECTIONS
                                -----------
  
 +----------------------------------------------------------------------------+
 |     Frac. Coord.   l mr  r        z-axis               x-axis          Z/a |
 +----------------------------------------------------------------------------+
 |  0.00  0.00  0.07  2  1  1  0.000  0.000  1.000  1.000  0.000  0.000   1.0 |
 |  0.00  0.00  0.07  2  1  1  0.000  0.000  1.000  1.000  0.000  0.000   1.0 |
 |  0.00  0.00  0.07  2  2  1  0.000  0.000  1.000  1.000  0.000  0.000   1.0 |
 |  0.00  0.00  0.07  2  2  1  0.000  0.000  1.000  1.000  0.000  0.000   1.0 |
 |  0.00  0.00  0.07  2  3  1  0.000  0.000  1.000  1.000  0.000  0.000   1.0 |
 |  0.00  0.00  0.07  2  3  1  0.000  0.000  1.000  1.000  0.000  0.000   1.0 |
 |  0.00  0.00  0.07  2  4  1  0.000  0.000  1.000  1.000  0.000  0.000   1.0 |
 |  0.00  0.00  0.07  2  4  1  0.000  0.000  1.000  1.000  0.000  0.000   1.0 |
 |  0.00  0.00  0.07  2  5  1  0.000  0.000  1.000  1.000  0.000  0.000   1.0 |
 |  0.00  0.00  0.07  2  5  1  0.000  0.000  1.000  1.000  0.000  0.000   1.0 |
 |  0.25  0.00  0.07  2  1  1  0.000  0.000  1.000  1.000  0.000  0.000   1.0 |
 |  0.25  0.00  0.07  2  1  1  0.000  0.000  1.000  1.000  0.000  0.000   1.0 |
 |  0.25  0.00  0.07  2  2  1  0.000  0.000  1.000  1.000  0.000  0.000   1.0 |
 |  0.25  0.00  0.07  2  2  1  0.000  0.000  1.000  1.000  0.000  0.000   1.0 |
 |  0.25  0.00  0.07  2  3  1  0.000  0.000  1.000  1.000  0.000  0.000   1.0 |
 |  0.25  0.00  0.07  2  3  1  0.000  0.000  1.000  1.000  0.000  0.000   1.0 |
 |  0.25  0.00  0.07  2  4  1  0.000  0.000  1.000  1.000  0.000  0.000   1.0 |
 |  0.25  0.00  0.07  2  4  1  0.000  0.000  1.000  1.000  0.000  0.000   1.0 |
 |  0.25  0.00  0.07  2  5  1  0.000  0.000  1.000  1.000  0.000  0.000   1.0 |
 |  0.25  0.00  0.07  2  5  1  0.000  0.000  1.000  1.000  0.000  0.000   1.0 |
 |  0.50  0.00  0.07  2  1  1  0.000  0.000  1.000  1.000  0.000  0.000   1.0 |
 |  0.50  0.00  0.07  2  1  1  0.000  0.000  1.000  1.000  0.000  0.000   1.0 |
 |  0.50  0.00  0.07  2  2  1  0.000  0.000  1.000  1.000  0.000  0.000   1.0 |
 |  0.50  0.00  0.07  2  2  1  0.000  0.000  1.000  1.000  0.000  0.000   1.0 |
 |  0.50  0.00  0.07  2  3  1  0.000  0.000  1.000  1.000  0.000  0.000   1.0 |
 |  0.50  0.00  0.07  2  3  1  0.000  0.000  1.000  1.000  0.000  0.000   1.0 |
 |  0.50  0.00  0.07  2  4  1  0.000  0.000  1.000  1.000  0.000  0.000   1.0 |
 |  0.50  0.00  0.07  2  4  1  0.000  0.000  1.000  1.000  0.000  0.000   1.0 |
 |  0.50  0.00  0.07  2  5  1  0.000  0.000  1.000  1.000  0.000  0.000   1.0 |
 |  0.50  0.00  0.07  2  5  1  0.000  0.000  1.000  1.000  0.000  0.000   1.0 |
 |  0.75  0.00  0.07  2  1  1  0.000  0.000  1.000  1.000  0.000  0.000   1.0 |
 |  0.75  0.00  0.07  2  1  1  0.000  0.000  1.000  1.000  0.000  0.000   1.0 |
 |  0.75  0.00  0.07  2  2  1  0.000  0.000  1.000  1.000  0.000  0.000   1.0 |
 |  0.75  0.00  0.07  2  2  1  0.000  0.000  1.000  1.000  0.000  0.000   1.0 |
 |  0.75  0.00  0.07  2  3  1  0.000  0.000  1.000  1.000  0.000  0.000   1.0 |
 |  0.75  0.00  0.07  2  3  1  0.000  0.000  1.000  1.000  0.000  0.000   1.0 |
 |  0.75  0.00  0.07  2  4  1  0.000  0.000  1.000  1.000  0.000  0.000   1.0 |
 |  0.75  0.00  0.07  2  4  1  0.000  0.000  1.000  1.000  0.000  0.000   1.0 |
 |  0.75  0.00  0.07  2  5  1  0.000  0.000  1.000  1.000  0.000  0.000   1.0 |
 |  0.75  0.00  0.07  2  5  1  0.000  0.000  1.000  1.000  0.000  0.000   1.0 |
 |  0.75  0.25  0.07  2  1  1  0.000  0.000  1.000  1.000  0.000  0.000   1.0 |
 |  0.75  0.25  0.07  2  1  1  0.000  0.000  1.000  1.000  0.000  0.000   1.0 |
 |  0.75  0.25  0.07  2  2  1  0.000  0.000  1.000  1.000  0.000  0.000   1.0 |
 |  0.75  0.25  0.07  2  2  1  0.000  0.000  1.000  1.000  0.000  0.000   1.0 |
 |  0.75  0.25  0.07  2  3  1  0.000  0.000  1.000  1.000  0.000  0.000   1.0 |
 |  0.75  0.25  0.07  2  3  1  0.000  0.000  1.000  1.000  0.000  0.000   1.0 |
 |  0.75  0.25  0.07  2  4  1  0.000  0.000  1.000  1.000  0.000  0.000   1.0 |
 |  0.75  0.25  0.07  2  4  1  0.000  0.000  1.000  1.000  0.000  0.000   1.0 |
 |  0.75  0.25  0.07  2  5  1  0.000  0.000  1.000  1.000  0.000  0.000   1.0 |
 |  0.75  0.25  0.07  2  5  1  0.000  0.000  1.000  1.000  0.000  0.000   1.0 |
 |  0.75  0.50  0.07  2  1  1  0.000  0.000  1.000  1.000  0.000  0.000   1.0 |
 |  0.75  0.50  0.07  2  1  1  0.000  0.000  1.000  1.000  0.000  0.000   1.0 |
 |  0.75  0.50  0.07  2  2  1  0.000  0.000  1.000  1.000  0.000  0.000   1.0 |
 |  0.75  0.50  0.07  2  2  1  0.000  0.000  1.000  1.000  0.000  0.000   1.0 |
 |  0.75  0.50  0.07  2  3  1  0.000  0.000  1.000  1.000  0.000  0.000   1.0 |
 |  0.75  0.50  0.07  2  3  1  0.000  0.000  1.000  1.000  0.000  0.000   1.0 |
 |  0.75  0.50  0.07  2  4  1  0.000  0.000  1.000  1.000  0.000  0.000   1.0 |
 |  0.75  0.50  0.07  2  4  1  0.000  0.000  1.000  1.000  0.000  0.000   1.0 |
 |  0.75  0.50  0.07  2  5  1  0.000  0.000  1.000  1.000  0.000  0.000   1.0 |
 |  0.75  0.50  0.07  2  5  1  0.000  0.000  1.000  1.000  0.000  0.000   1.0 |
 |  0.75  0.75  0.07  2  1  1  0.000  0.000  1.000  1.000  0.000  0.000   1.0 |
 |  0.75  0.75  0.07  2  1  1  0.000  0.000  1.000  1.000  0.000  0.000   1.0 |
 |  0.75  0.75  0.07  2  2  1  0.000  0.000  1.000  1.000  0.000  0.000   1.0 |
 |  0.75  0.75  0.07  2  2  1  0.000  0.000  1.000  1.000  0.000  0.000   1.0 |
 |  0.75  0.75  0.07  2  3  1  0.000  0.000  1.000  1.000  0.000  0.000   1.0 |
 |  0.75  0.75  0.07  2  3  1  0.000  0.000  1.000  1.000  0.000  0.000   1.0 |
 |  0.75  0.75  0.07  2  4  1  0.000  0.000  1.000  1.000  0.000  0.000   1.0 |
 |  0.75  0.75  0.07  2  4  1  0.000  0.000  1.000  1.000  0.000  0.000   1.0 |
 |  0.75  0.75  0.07  2  5  1  0.000  0.000  1.000  1.000  0.000  0.000   1.0 |
 |  0.75  0.75  0.07  2  5  1  0.000  0.000  1.000  1.000  0.000  0.000   1.0 |
 |  0.50  0.75  0.07  2  1  1  0.000  0.000  1.000  1.000  0.000  0.000   1.0 |
 |  0.50  0.75  0.07  2  1  1  0.000  0.000  1.000  1.000  0.000  0.000   1.0 |
 |  0.50  0.75  0.07  2  2  1  0.000  0.000  1.000  1.000  0.000  0.000   1.0 |
 |  0.50  0.75  0.07  2  2  1  0.000  0.000  1.000  1.000  0.000  0.000   1.0 |
 |  0.50  0.75  0.07  2  3  1  0.000  0.000  1.000  1.000  0.000  0.000   1.0 |
 |  0.50  0.75  0.07  2  3  1  0.000  0.000  1.000  1.000  0.000  0.000   1.0 |
 |  0.50  0.75  0.07  2  4  1  0.000  0.000  1.000  1.000  0.000  0.000   1.0 |
 |  0.50  0.75  0.07  2  4  1  0.000  0.000  1.000  1.000  0.000  0.000   1.0 |
 |  0.50  0.75  0.07  2  5  1  0.000  0.000  1.000  1.000  0.000  0.000   1.0 |
 |  0.50  0.75  0.07  2  5  1  0.000  0.000  1.000  1.000  0.000  0.000   1.0 |
 |  0.25  0.75  0.07  2  1  1  0.000  0.000  1.000  1.000  0.000  0.000   1.0 |
 |  0.25  0.75  0.07  2  1  1  0.000  0.000  1.000  1.000  0.000  0.000   1.0 |
 |  0.25  0.75  0.07  2  2  1  0.000  0.000  1.000  1.000  0.000  0.000   1.0 |
 |  0.25  0.75  0.07  2  2  1  0.000  0.000  1.000  1.000  0.000  0.000   1.0 |
 |  0.25  0.75  0.07  2  3  1  0.000  0.000  1.000  1.000  0.000  0.000   1.0 |
 |  0.25  0.75  0.07  2  3  1  0.000  0.000  1.000  1.000  0.000  0.000   1.0 |
 |  0.25  0.75  0.07  2  4  1  0.000  0.000  1.000  1.000  0.000  0.000   1.0 |
 |  0.25  0.75  0.07  2  4  1  0.000  0.000  1.000  1.000  0.000  0.000   1.0 |
 |  0.25  0.75  0.07  2  5  1  0.000  0.000  1.000  1.000  0.000  0.000   1.0 |
 |  0.25  0.75  0.07  2  5  1  0.000  0.000  1.000  1.000  0.000  0.000   1.0 |
 |  0.00  0.75  0.07  2  1  1  0.000  0.000  1.000  1.000  0.000  0.000   1.0 |
 |  0.00  0.75  0.07  2  1  1  0.000  0.000  1.000  1.000  0.000  0.000   1.0 |
 |  0.00  0.75  0.07  2  2  1  0.000  0.000  1.000  1.000  0.000  0.000   1.0 |
 |  0.00  0.75  0.07  2  2  1  0.000  0.000  1.000  1.000  0.000  0.000   1.0 |
 |  0.00  0.75  0.07  2  3  1  0.000  0.000  1.000  1.000  0.000  0.000   1.0 |
 |  0.00  0.75  0.07  2  3  1  0.000  0.000  1.000  1.000  0.000  0.000   1.0 |
 |  0.00  0.75  0.07  2  4  1  0.000  0.000  1.000  1.000  0.000  0.000   1.0 |
 |  0.00  0.75  0.07  2  4  1  0.000  0.000  1.000  1.000  0.000  0.000   1.0 |
 |  0.00  0.75  0.07  2  5  1  0.000  0.000  1.000  1.000  0.000  0.000   1.0 |
 |  0.00  0.75  0.07  2  5  1  0.000  0.000  1.000  1.000  0.000  0.000   1.0 |
 |  0.50  0.25  0.07  2  1  1  0.000  0.000  1.000  1.000  0.000  0.000   1.0 |
 |  0.50  0.25  0.07  2  1  1  0.000  0.000  1.000  1.000  0.000  0.000   1.0 |
 |  0.50  0.25  0.07  2  2  1  0.000  0.000  1.000  1.000  0.000  0.000   1.0 |
 |  0.50  0.25  0.07  2  2  1  0.000  0.000  1.000  1.000  0.000  0.000   1.0 |
 |  0.50  0.25  0.07  2  3  1  0.000  0.000  1.000  1.000  0.000  0.000   1.0 |
 |  0.50  0.25  0.07  2  3  1  0.000  0.000  1.000  1.000  0.000  0.000   1.0 |
 |  0.50  0.25  0.07  2  4  1  0.000  0.000  1.000  1.000  0.000  0.000   1.0 |
 |  0.50  0.25  0.07  2  4  1  0.000  0.000  1.000  1.000  0.000  0.000   1.0 |
 |  0.50  0.25  0.07  2  5  1  0.000  0.000  1.000  1.000  0.000  0.000   1.0 |
 |  0.50  0.25  0.07  2  5  1  0.000  0.000  1.000  1.000  0.000  0.000   1.0 |
 |  0.50  0.50  0.07  2  1  1  0.000  0.000  1.000  1.000  0.000  0.000   1.0 |
 |  0.50  0.50  0.07  2  1  1  0.000  0.000  1.000  1.000  0.000  0.000   1.0 |
 |  0.50  0.50  0.07  2  2  1  0.000  0.000  1.000  1.000  0.000  0.000   1.0 |
 |  0.50  0.50  0.07  2  2  1  0.000  0.000  1.000  1.000  0.000  0.000   1.0 |
 |  0.50  0.50  0.07  2  3  1  0.000  0.000  1.000  1.000  0.000  0.000   1.0 |
 |  0.50  0.50  0.07  2  3  1  0.000  0.000  1.000  1.000  0.000  0.000   1.0 |
 |  0.50  0.50  0.07  2  4  1  0.000  0.000  1.000  1.000  0.000  0.000   1.0 |
 |  0.50  0.50  0.07  2  4  1  0.000  0.000  1.000  1.000  0.000  0.000   1.0 |
 |  0.50  0.50  0.07  2  5  1  0.000  0.000  1.000  1.000  0.000  0.000   1.0 |
 |  0.50  0.50  0.07  2  5  1  0.000  0.000  1.000  1.000  0.000  0.000   1.0 |
 |  0.25  0.50  0.07  2  1  1  0.000  0.000  1.000  1.000  0.000  0.000   1.0 |
 |  0.25  0.50  0.07  2  1  1  0.000  0.000  1.000  1.000  0.000  0.000   1.0 |
 |  0.25  0.50  0.07  2  2  1  0.000  0.000  1.000  1.000  0.000  0.000   1.0 |
 |  0.25  0.50  0.07  2  2  1  0.000  0.000  1.000  1.000  0.000  0.000   1.0 |
 |  0.25  0.50  0.07  2  3  1  0.000  0.000  1.000  1.000  0.000  0.000   1.0 |
 |  0.25  0.50  0.07  2  3  1  0.000  0.000  1.000  1.000  0.000  0.000   1.0 |
 |  0.25  0.50  0.07  2  4  1  0.000  0.000  1.000  1.000  0.000  0.000   1.0 |
 |  0.25  0.50  0.07  2  4  1  0.000  0.000  1.000  1.000  0.000  0.000   1.0 |
 |  0.25  0.50  0.07  2  5  1  0.000  0.000  1.000  1.000  0.000  0.000   1.0 |
 |  0.25  0.50  0.07  2  5  1  0.000  0.000  1.000  1.000  0.000  0.000   1.0 |
 |  0.25  0.25  0.07  2  1  1  0.000  0.000  1.000  1.000  0.000  0.000   1.0 |
 |  0.25  0.25  0.07  2  1  1  0.000  0.000  1.000  1.000  0.000  0.000   1.0 |
 |  0.25  0.25  0.07  2  2  1  0.000  0.000  1.000  1.000  0.000  0.000   1.0 |
 |  0.25  0.25  0.07  2  2  1  0.000  0.000  1.000  1.000  0.000  0.000   1.0 |
 |  0.25  0.25  0.07  2  3  1  0.000  0.000  1.000  1.000  0.000  0.000   1.0 |
 |  0.25  0.25  0.07  2  3  1  0.000  0.000  1.000  1.000  0.000  0.000   1.0 |
 |  0.25  0.25  0.07  2  4  1  0.000  0.000  1.000  1.000  0.000  0.000   1.0 |
 |  0.25  0.25  0.07  2  4  1  0.000  0.000  1.000  1.000  0.000  0.000   1.0 |
 |  0.25  0.25  0.07  2  5  1  0.000  0.000  1.000  1.000  0.000  0.000   1.0 |
 |  0.25  0.25  0.07  2  5  1  0.000  0.000  1.000  1.000  0.000  0.000   1.0 |
 |  0.00  0.25  0.07  2  1  1  0.000  0.000  1.000  1.000  0.000  0.000   1.0 |
 |  0.00  0.25  0.07  2  1  1  0.000  0.000  1.000  1.000  0.000  0.000   1.0 |
 |  0.00  0.25  0.07  2  2  1  0.000  0.000  1.000  1.000  0.000  0.000   1.0 |
 |  0.00  0.25  0.07  2  2  1  0.000  0.000  1.000  1.000  0.000  0.000   1.0 |
 |  0.00  0.25  0.07  2  3  1  0.000  0.000  1.000  1.000  0.000  0.000   1.0 |
 |  0.00  0.25  0.07  2  3  1  0.000  0.000  1.000  1.000  0.000  0.000   1.0 |
 |  0.00  0.25  0.07  2  4  1  0.000  0.000  1.000  1.000  0.000  0.000   1.0 |
 |  0.00  0.25  0.07  2  4  1  0.000  0.000  1.000  1.000  0.000  0.000   1.0 |
 |  0.00  0.25  0.07  2  5  1  0.000  0.000  1.000  1.000  0.000  0.000   1.0 |
 |  0.00  0.25  0.07  2  5  1  0.000  0.000  1.000  1.000  0.000  0.000   1.0 |
 |  0.00  0.50  0.07  2  1  1  0.000  0.000  1.000  1.000  0.000  0.000   1.0 |
 |  0.00  0.50  0.07  2  1  1  0.000  0.000  1.000  1.000  0.000  0.000   1.0 |
 |  0.00  0.50  0.07  2  2  1  0.000  0.000  1.000  1.000  0.000  0.000   1.0 |
 |  0.00  0.50  0.07  2  2  1  0.000  0.000  1.000  1.000  0.000  0.000   1.0 |
 |  0.00  0.50  0.07  2  3  1  0.000  0.000  1.000  1.000  0.000  0.000   1.0 |
 |  0.00  0.50  0.07  2  3  1  0.000  0.000  1.000  1.000  0.000  0.000   1.0 |
 |  0.00  0.50  0.07  2  4  1  0.000  0.000  1.000  1.000  0.000  0.000   1.0 |
 |  0.00  0.50  0.07  2  4  1  0.000  0.000  1.000  1.000  0.000  0.000   1.0 |
 |  0.00  0.50  0.07  2  5  1  0.000  0.000  1.000  1.000  0.000  0.000   1.0 |
 |  0.00  0.50  0.07  2  5  1  0.000  0.000  1.000  1.000  0.000  0.000   1.0 |
 |  0.17  0.08  0.00  1  1  1  0.000  0.000  1.000  1.000  0.000  0.000   1.0 |
 |  0.17  0.08  0.00  1  1  1  0.000  0.000  1.000  1.000  0.000  0.000   1.0 |
 |  0.17  0.08  0.00  1  2  1  0.000  0.000  1.000  1.000  0.000  0.000   1.0 |
 |  0.17  0.08  0.00  1  2  1  0.000  0.000  1.000  1.000  0.000  0.000   1.0 |
 |  0.17  0.08  0.00  1  3  1  0.000  0.000  1.000  1.000  0.000  0.000   1.0 |
 |  0.17  0.08  0.00  1  3  1  0.000  0.000  1.000  1.000  0.000  0.000   1.0 |
 |  0.17  0.08  0.14  1  1  1  0.000  0.000  1.000  1.000  0.000  0.000   1.0 |
 |  0.17  0.08  0.14  1  1  1  0.000  0.000  1.000  1.000  0.000  0.000   1.0 |
 |  0.17  0.08  0.14  1  2  1  0.000  0.000  1.000  1.000  0.000  0.000   1.0 |
 |  0.17  0.08  0.14  1  2  1  0.000  0.000  1.000  1.000  0.000  0.000   1.0 |
 |  0.17  0.08  0.14  1  3  1  0.000  0.000  1.000  1.000  0.000  0.000   1.0 |
 |  0.17  0.08  0.14  1  3  1  0.000  0.000  1.000  1.000  0.000  0.000   1.0 |
 |  0.42  0.08  0.00  1  1  1  0.000  0.000  1.000  1.000  0.000  0.000   1.0 |
 |  0.42  0.08  0.00  1  1  1  0.000  0.000  1.000  1.000  0.000  0.000   1.0 |
 |  0.42  0.08  0.00  1  2  1  0.000  0.000  1.000  1.000  0.000  0.000   1.0 |
 |  0.42  0.08  0.00  1  2  1  0.000  0.000  1.000  1.000  0.000  0.000   1.0 |
 |  0.42  0.08  0.00  1  3  1  0.000  0.000  1.000  1.000  0.000  0.000   1.0 |
 |  0.42  0.08  0.00  1  3  1  0.000  0.000  1.000  1.000  0.000  0.000   1.0 |
 |  0.42  0.08  0.14  1  1  1  0.000  0.000  1.000  1.000  0.000  0.000   1.0 |
 |  0.42  0.08  0.14  1  1  1  0.000  0.000  1.000  1.000  0.000  0.000   1.0 |
 |  0.42  0.08  0.14  1  2  1  0.000  0.000  1.000  1.000  0.000  0.000   1.0 |
 |  0.42  0.08  0.14  1  2  1  0.000  0.000  1.000  1.000  0.000  0.000   1.0 |
 |  0.42  0.08  0.14  1  3  1  0.000  0.000  1.000  1.000  0.000  0.000   1.0 |
 |  0.42  0.08  0.14  1  3  1  0.000  0.000  1.000  1.000  0.000  0.000   1.0 |
 |  0.67  0.08  0.00  1  1  1  0.000  0.000  1.000  1.000  0.000  0.000   1.0 |
 |  0.67  0.08  0.00  1  1  1  0.000  0.000  1.000  1.000  0.000  0.000   1.0 |
 |  0.67  0.08  0.00  1  2  1  0.000  0.000  1.000  1.000  0.000  0.000   1.0 |
 |  0.67  0.08  0.00  1  2  1  0.000  0.000  1.000  1.000  0.000  0.000   1.0 |
 |  0.67  0.08  0.00  1  3  1  0.000  0.000  1.000  1.000  0.000  0.000   1.0 |
 |  0.67  0.08  0.00  1  3  1  0.000  0.000  1.000  1.000  0.000  0.000   1.0 |
 |  0.67  0.08  0.14  1  1  1  0.000  0.000  1.000  1.000  0.000  0.000   1.0 |
 |  0.67  0.08  0.14  1  1  1  0.000  0.000  1.000  1.000  0.000  0.000   1.0 |
 |  0.67  0.08  0.14  1  2  1  0.000  0.000  1.000  1.000  0.000  0.000   1.0 |
 |  0.67  0.08  0.14  1  2  1  0.000  0.000  1.000  1.000  0.000  0.000   1.0 |
 |  0.67  0.08  0.14  1  3  1  0.000  0.000  1.000  1.000  0.000  0.000   1.0 |
 |  0.67  0.08  0.14  1  3  1  0.000  0.000  1.000  1.000  0.000  0.000   1.0 |
 |  0.92  0.08  0.00  1  1  1  0.000  0.000  1.000  1.000  0.000  0.000   1.0 |
 |  0.92  0.08  0.00  1  1  1  0.000  0.000  1.000  1.000  0.000  0.000   1.0 |
 |  0.92  0.08  0.00  1  2  1  0.000  0.000  1.000  1.000  0.000  0.000   1.0 |
 |  0.92  0.08  0.00  1  2  1  0.000  0.000  1.000  1.000  0.000  0.000   1.0 |
 |  0.92  0.08  0.00  1  3  1  0.000  0.000  1.000  1.000  0.000  0.000   1.0 |
 |  0.92  0.08  0.00  1  3  1  0.000  0.000  1.000  1.000  0.000  0.000   1.0 |
 |  0.92  0.08  0.14  1  1  1  0.000  0.000  1.000  1.000  0.000  0.000   1.0 |
 |  0.92  0.08  0.14  1  1  1  0.000  0.000  1.000  1.000  0.000  0.000   1.0 |
 |  0.92  0.08  0.14  1  2  1  0.000  0.000  1.000  1.000  0.000  0.000   1.0 |
 |  0.92  0.08  0.14  1  2  1  0.000  0.000  1.000  1.000  0.000  0.000   1.0 |
 |  0.92  0.08  0.14  1  3  1  0.000  0.000  1.000  1.000  0.000  0.000   1.0 |
 |  0.92  0.08  0.14  1  3  1  0.000  0.000  1.000  1.000  0.000  0.000   1.0 |
 |  0.92  0.33  0.00  1  1  1  0.000  0.000  1.000  1.000  0.000  0.000   1.0 |
 |  0.92  0.33  0.00  1  1  1  0.000  0.000  1.000  1.000  0.000  0.000   1.0 |
 |  0.92  0.33  0.00  1  2  1  0.000  0.000  1.000  1.000  0.000  0.000   1.0 |
 |  0.92  0.33  0.00  1  2  1  0.000  0.000  1.000  1.000  0.000  0.000   1.0 |
 |  0.92  0.33  0.00  1  3  1  0.000  0.000  1.000  1.000  0.000  0.000   1.0 |
 |  0.92  0.33  0.00  1  3  1  0.000  0.000  1.000  1.000  0.000  0.000   1.0 |
 |  0.92  0.33  0.14  1  1  1  0.000  0.000  1.000  1.000  0.000  0.000   1.0 |
 |  0.92  0.33  0.14  1  1  1  0.000  0.000  1.000  1.000  0.000  0.000   1.0 |
 |  0.92  0.33  0.14  1  2  1  0.000  0.000  1.000  1.000  0.000  0.000   1.0 |
 |  0.92  0.33  0.14  1  2  1  0.000  0.000  1.000  1.000  0.000  0.000   1.0 |
 |  0.92  0.33  0.14  1  3  1  0.000  0.000  1.000  1.000  0.000  0.000   1.0 |
 |  0.92  0.33  0.14  1  3  1  0.000  0.000  1.000  1.000  0.000  0.000   1.0 |
 |  0.92  0.58  0.00  1  1  1  0.000  0.000  1.000  1.000  0.000  0.000   1.0 |
 |  0.92  0.58  0.00  1  1  1  0.000  0.000  1.000  1.000  0.000  0.000   1.0 |
 |  0.92  0.58  0.00  1  2  1  0.000  0.000  1.000  1.000  0.000  0.000   1.0 |
 |  0.92  0.58  0.00  1  2  1  0.000  0.000  1.000  1.000  0.000  0.000   1.0 |
 |  0.92  0.58  0.00  1  3  1  0.000  0.000  1.000  1.000  0.000  0.000   1.0 |
 |  0.92  0.58  0.00  1  3  1  0.000  0.000  1.000  1.000  0.000  0.000   1.0 |
 |  0.92  0.58  0.14  1  1  1  0.000  0.000  1.000  1.000  0.000  0.000   1.0 |
 |  0.92  0.58  0.14  1  1  1  0.000  0.000  1.000  1.000  0.000  0.000   1.0 |
 |  0.92  0.58  0.14  1  2  1  0.000  0.000  1.000  1.000  0.000  0.000   1.0 |
 |  0.92  0.58  0.14  1  2  1  0.000  0.000  1.000  1.000  0.000  0.000   1.0 |
 |  0.92  0.58  0.14  1  3  1  0.000  0.000  1.000  1.000  0.000  0.000   1.0 |
 |  0.92  0.58  0.14  1  3  1  0.000  0.000  1.000  1.000  0.000  0.000   1.0 |
 |  0.92  0.83  0.00  1  1  1  0.000  0.000  1.000  1.000  0.000  0.000   1.0 |
 |  0.92  0.83  0.00  1  1  1  0.000  0.000  1.000  1.000  0.000  0.000   1.0 |
 |  0.92  0.83  0.00  1  2  1  0.000  0.000  1.000  1.000  0.000  0.000   1.0 |
 |  0.92  0.83  0.00  1  2  1  0.000  0.000  1.000  1.000  0.000  0.000   1.0 |
 |  0.92  0.83  0.00  1  3  1  0.000  0.000  1.000  1.000  0.000  0.000   1.0 |
 |  0.92  0.83  0.00  1  3  1  0.000  0.000  1.000  1.000  0.000  0.000   1.0 |
 |  0.92  0.83  0.14  1  1  1  0.000  0.000  1.000  1.000  0.000  0.000   1.0 |
 |  0.92  0.83  0.14  1  1  1  0.000  0.000  1.000  1.000  0.000  0.000   1.0 |
 |  0.92  0.83  0.14  1  2  1  0.000  0.000  1.000  1.000  0.000  0.000   1.0 |
 |  0.92  0.83  0.14  1  2  1  0.000  0.000  1.000  1.000  0.000  0.000   1.0 |
 |  0.92  0.83  0.14  1  3  1  0.000  0.000  1.000  1.000  0.000  0.000   1.0 |
 |  0.92  0.83  0.14  1  3  1  0.000  0.000  1.000  1.000  0.000  0.000   1.0 |
 |  0.67  0.83  0.00  1  1  1  0.000  0.000  1.000  1.000  0.000  0.000   1.0 |
 |  0.67  0.83  0.00  1  1  1  0.000  0.000  1.000  1.000  0.000  0.000   1.0 |
 |  0.67  0.83  0.00  1  2  1  0.000  0.000  1.000  1.000  0.000  0.000   1.0 |
 |  0.67  0.83  0.00  1  2  1  0.000  0.000  1.000  1.000  0.000  0.000   1.0 |
 |  0.67  0.83  0.00  1  3  1  0.000  0.000  1.000  1.000  0.000  0.000   1.0 |
 |  0.67  0.83  0.00  1  3  1  0.000  0.000  1.000  1.000  0.000  0.000   1.0 |
 |  0.67  0.83  0.14  1  1  1  0.000  0.000  1.000  1.000  0.000  0.000   1.0 |
 |  0.67  0.83  0.14  1  1  1  0.000  0.000  1.000  1.000  0.000  0.000   1.0 |
 |  0.67  0.83  0.14  1  2  1  0.000  0.000  1.000  1.000  0.000  0.000   1.0 |
 |  0.67  0.83  0.14  1  2  1  0.000  0.000  1.000  1.000  0.000  0.000   1.0 |
 |  0.67  0.83  0.14  1  3  1  0.000  0.000  1.000  1.000  0.000  0.000   1.0 |
 |  0.67  0.83  0.14  1  3  1  0.000  0.000  1.000  1.000  0.000  0.000   1.0 |
 |  0.42  0.83  0.00  1  1  1  0.000  0.000  1.000  1.000  0.000  0.000   1.0 |
 |  0.42  0.83  0.00  1  1  1  0.000  0.000  1.000  1.000  0.000  0.000   1.0 |
 |  0.42  0.83  0.00  1  2  1  0.000  0.000  1.000  1.000  0.000  0.000   1.0 |
 |  0.42  0.83  0.00  1  2  1  0.000  0.000  1.000  1.000  0.000  0.000   1.0 |
 |  0.42  0.83  0.00  1  3  1  0.000  0.000  1.000  1.000  0.000  0.000   1.0 |
 |  0.42  0.83  0.00  1  3  1  0.000  0.000  1.000  1.000  0.000  0.000   1.0 |
 |  0.42  0.83  0.14  1  1  1  0.000  0.000  1.000  1.000  0.000  0.000   1.0 |
 |  0.42  0.83  0.14  1  1  1  0.000  0.000  1.000  1.000  0.000  0.000   1.0 |
 |  0.42  0.83  0.14  1  2  1  0.000  0.000  1.000  1.000  0.000  0.000   1.0 |
 |  0.42  0.83  0.14  1  2  1  0.000  0.000  1.000  1.000  0.000  0.000   1.0 |
 |  0.42  0.83  0.14  1  3  1  0.000  0.000  1.000  1.000  0.000  0.000   1.0 |
 |  0.42  0.83  0.14  1  3  1  0.000  0.000  1.000  1.000  0.000  0.000   1.0 |
 |  0.17  0.83  0.00  1  1  1  0.000  0.000  1.000  1.000  0.000  0.000   1.0 |
 |  0.17  0.83  0.00  1  1  1  0.000  0.000  1.000  1.000  0.000  0.000   1.0 |
 |  0.17  0.83  0.00  1  2  1  0.000  0.000  1.000  1.000  0.000  0.000   1.0 |
 |  0.17  0.83  0.00  1  2  1  0.000  0.000  1.000  1.000  0.000  0.000   1.0 |
 |  0.17  0.83  0.00  1  3  1  0.000  0.000  1.000  1.000  0.000  0.000   1.0 |
 |  0.17  0.83  0.00  1  3  1  0.000  0.000  1.000  1.000  0.000  0.000   1.0 |
 |  0.17  0.83  0.14  1  1  1  0.000  0.000  1.000  1.000  0.000  0.000   1.0 |
 |  0.17  0.83  0.14  1  1  1  0.000  0.000  1.000  1.000  0.000  0.000   1.0 |
 |  0.17  0.83  0.14  1  2  1  0.000  0.000  1.000  1.000  0.000  0.000   1.0 |
 |  0.17  0.83  0.14  1  2  1  0.000  0.000  1.000  1.000  0.000  0.000   1.0 |
 |  0.17  0.83  0.14  1  3  1  0.000  0.000  1.000  1.000  0.000  0.000   1.0 |
 |  0.17  0.83  0.14  1  3  1  0.000  0.000  1.000  1.000  0.000  0.000   1.0 |
 |  0.67  0.33  0.00  1  1  1  0.000  0.000  1.000  1.000  0.000  0.000   1.0 |
 |  0.67  0.33  0.00  1  1  1  0.000  0.000  1.000  1.000  0.000  0.000   1.0 |
 |  0.67  0.33  0.00  1  2  1  0.000  0.000  1.000  1.000  0.000  0.000   1.0 |
 |  0.67  0.33  0.00  1  2  1  0.000  0.000  1.000  1.000  0.000  0.000   1.0 |
 |  0.67  0.33  0.00  1  3  1  0.000  0.000  1.000  1.000  0.000  0.000   1.0 |
 |  0.67  0.33  0.00  1  3  1  0.000  0.000  1.000  1.000  0.000  0.000   1.0 |
 |  0.67  0.33  0.14  1  1  1  0.000  0.000  1.000  1.000  0.000  0.000   1.0 |
 |  0.67  0.33  0.14  1  1  1  0.000  0.000  1.000  1.000  0.000  0.000   1.0 |
 |  0.67  0.33  0.14  1  2  1  0.000  0.000  1.000  1.000  0.000  0.000   1.0 |
 |  0.67  0.33  0.14  1  2  1  0.000  0.000  1.000  1.000  0.000  0.000   1.0 |
 |  0.67  0.33  0.14  1  3  1  0.000  0.000  1.000  1.000  0.000  0.000   1.0 |
 |  0.67  0.33  0.14  1  3  1  0.000  0.000  1.000  1.000  0.000  0.000   1.0 |
 |  0.67  0.58  0.00  1  1  1  0.000  0.000  1.000  1.000  0.000  0.000   1.0 |
 |  0.67  0.58  0.00  1  1  1  0.000  0.000  1.000  1.000  0.000  0.000   1.0 |
 |  0.67  0.58  0.00  1  2  1  0.000  0.000  1.000  1.000  0.000  0.000   1.0 |
 |  0.67  0.58  0.00  1  2  1  0.000  0.000  1.000  1.000  0.000  0.000   1.0 |
 |  0.67  0.58  0.00  1  3  1  0.000  0.000  1.000  1.000  0.000  0.000   1.0 |
 |  0.67  0.58  0.00  1  3  1  0.000  0.000  1.000  1.000  0.000  0.000   1.0 |
 |  0.67  0.58  0.14  1  1  1  0.000  0.000  1.000  1.000  0.000  0.000   1.0 |
 |  0.67  0.58  0.14  1  1  1  0.000  0.000  1.000  1.000  0.000  0.000   1.0 |
 |  0.67  0.58  0.14  1  2  1  0.000  0.000  1.000  1.000  0.000  0.000   1.0 |
 |  0.67  0.58  0.14  1  2  1  0.000  0.000  1.000  1.000  0.000  0.000   1.0 |
 |  0.67  0.58  0.14  1  3  1  0.000  0.000  1.000  1.000  0.000  0.000   1.0 |
 |  0.67  0.58  0.14  1  3  1  0.000  0.000  1.000  1.000  0.000  0.000   1.0 |
 |  0.42  0.58  0.00  1  1  1  0.000  0.000  1.000  1.000  0.000  0.000   1.0 |
 |  0.42  0.58  0.00  1  1  1  0.000  0.000  1.000  1.000  0.000  0.000   1.0 |
 |  0.42  0.58  0.00  1  2  1  0.000  0.000  1.000  1.000  0.000  0.000   1.0 |
 |  0.42  0.58  0.00  1  2  1  0.000  0.000  1.000  1.000  0.000  0.000   1.0 |
 |  0.42  0.58  0.00  1  3  1  0.000  0.000  1.000  1.000  0.000  0.000   1.0 |
 |  0.42  0.58  0.00  1  3  1  0.000  0.000  1.000  1.000  0.000  0.000   1.0 |
 |  0.42  0.58  0.14  1  1  1  0.000  0.000  1.000  1.000  0.000  0.000   1.0 |
 |  0.42  0.58  0.14  1  1  1  0.000  0.000  1.000  1.000  0.000  0.000   1.0 |
 |  0.42  0.58  0.14  1  2  1  0.000  0.000  1.000  1.000  0.000  0.000   1.0 |
 |  0.42  0.58  0.14  1  2  1  0.000  0.000  1.000  1.000  0.000  0.000   1.0 |
 |  0.42  0.58  0.14  1  3  1  0.000  0.000  1.000  1.000  0.000  0.000   1.0 |
 |  0.42  0.58  0.14  1  3  1  0.000  0.000  1.000  1.000  0.000  0.000   1.0 |
 |  0.42  0.33  0.00  1  1  1  0.000  0.000  1.000  1.000  0.000  0.000   1.0 |
 |  0.42  0.33  0.00  1  1  1  0.000  0.000  1.000  1.000  0.000  0.000   1.0 |
 |  0.42  0.33  0.00  1  2  1  0.000  0.000  1.000  1.000  0.000  0.000   1.0 |
 |  0.42  0.33  0.00  1  2  1  0.000  0.000  1.000  1.000  0.000  0.000   1.0 |
 |  0.42  0.33  0.00  1  3  1  0.000  0.000  1.000  1.000  0.000  0.000   1.0 |
 |  0.42  0.33  0.00  1  3  1  0.000  0.000  1.000  1.000  0.000  0.000   1.0 |
 |  0.42  0.33  0.14  1  1  1  0.000  0.000  1.000  1.000  0.000  0.000   1.0 |
 |  0.42  0.33  0.14  1  1  1  0.000  0.000  1.000  1.000  0.000  0.000   1.0 |
 |  0.42  0.33  0.14  1  2  1  0.000  0.000  1.000  1.000  0.000  0.000   1.0 |
 |  0.42  0.33  0.14  1  2  1  0.000  0.000  1.000  1.000  0.000  0.000   1.0 |
 |  0.42  0.33  0.14  1  3  1  0.000  0.000  1.000  1.000  0.000  0.000   1.0 |
 |  0.42  0.33  0.14  1  3  1  0.000  0.000  1.000  1.000  0.000  0.000   1.0 |
 |  0.17  0.33  0.00  1  1  1  0.000  0.000  1.000  1.000  0.000  0.000   1.0 |
 |  0.17  0.33  0.00  1  1  1  0.000  0.000  1.000  1.000  0.000  0.000   1.0 |
 |  0.17  0.33  0.00  1  2  1  0.000  0.000  1.000  1.000  0.000  0.000   1.0 |
 |  0.17  0.33  0.00  1  2  1  0.000  0.000  1.000  1.000  0.000  0.000   1.0 |
 |  0.17  0.33  0.00  1  3  1  0.000  0.000  1.000  1.000  0.000  0.000   1.0 |
 |  0.17  0.33  0.00  1  3  1  0.000  0.000  1.000  1.000  0.000  0.000   1.0 |
 |  0.17  0.33  0.14  1  1  1  0.000  0.000  1.000  1.000  0.000  0.000   1.0 |
 |  0.17  0.33  0.14  1  1  1  0.000  0.000  1.000  1.000  0.000  0.000   1.0 |
 |  0.17  0.33  0.14  1  2  1  0.000  0.000  1.000  1.000  0.000  0.000   1.0 |
 |  0.17  0.33  0.14  1  2  1  0.000  0.000  1.000  1.000  0.000  0.000   1.0 |
 |  0.17  0.33  0.14  1  3  1  0.000  0.000  1.000  1.000  0.000  0.000   1.0 |
 |  0.17  0.33  0.14  1  3  1  0.000  0.000  1.000  1.000  0.000  0.000   1.0 |
 |  0.17  0.58  0.00  1  1  1  0.000  0.000  1.000  1.000  0.000  0.000   1.0 |
 |  0.17  0.58  0.00  1  1  1  0.000  0.000  1.000  1.000  0.000  0.000   1.0 |
 |  0.17  0.58  0.00  1  2  1  0.000  0.000  1.000  1.000  0.000  0.000   1.0 |
 |  0.17  0.58  0.00  1  2  1  0.000  0.000  1.000  1.000  0.000  0.000   1.0 |
 |  0.17  0.58  0.00  1  3  1  0.000  0.000  1.000  1.000  0.000  0.000   1.0 |
 |  0.17  0.58  0.00  1  3  1  0.000  0.000  1.000  1.000  0.000  0.000   1.0 |
 |  0.17  0.58  0.14  1  1  1  0.000  0.000  1.000  1.000  0.000  0.000   1.0 |
 |  0.17  0.58  0.14  1  1  1  0.000  0.000  1.000  1.000  0.000  0.000   1.0 |
 |  0.17  0.58  0.14  1  2  1  0.000  0.000  1.000  1.000  0.000  0.000   1.0 |
 |  0.17  0.58  0.14  1  2  1  0.000  0.000  1.000  1.000  0.000  0.000   1.0 |
 |  0.17  0.58  0.14  1  3  1  0.000  0.000  1.000  1.000  0.000  0.000   1.0 |
 |  0.17  0.58  0.14  1  3  1  0.000  0.000  1.000  1.000  0.000  0.000   1.0 |
 +----------------------------------------------------------------------------+
  
                                ------------
                                K-POINT GRID
                                ------------
  
             Grid size =  3 x  3 x  1      Total points =    9
  
 *----------------------------------------------------------------------------*
 | k-point      Fractional Coordinate        Cartesian Coordinate (Ang^-1)    |
 +----------------------------------------------------------------------------+
 |     1    0.00000   0.00000   0.00000   |    0.00000   0.00000   0.00000    |
 |     2    0.00000   0.33333   0.00000   |    0.00000   0.17545   0.00000    |
 |     3    0.00000   0.66667   0.00000   |    0.00000   0.35090   0.00000    |
 |     4    0.33333   0.00000   0.00000   |    0.15194   0.08772   0.00000    |
 |     5    0.33333   0.33333   0.00000   |    0.15194   0.26317   0.00000    |
 |     6    0.33333   0.66667   0.00000   |    0.15194   0.43862   0.00000    |
 |     7    0.66667   0.00000   0.00000   |    0.30388   0.17545   0.00000    |
 |     8    0.66667   0.33333   0.00000   |    0.30388   0.35090   0.00000    |
 |     9    0.66667   0.66667   0.00000   |    0.30388   0.52634   0.00000    |
 *----------------------------------------------------------------------------*
  
  
 *---------------------------------- MAIN ------------------------------------*
 |  Number of Wannier Functions               :               352             |
 |  Number of Objective Wannier Functions     :               352             |
 |  Number of input Bloch states              :               600             |
 |  Output verbosity (1=low, 5=high)          :                 3             |
 |  Timing Level (1=low, 5=high)              :                 1             |
 |  Optimisation (0=memory, 3=speed)          :                 3             |
 |  Length Unit                               :               Ang             |
 |  Post-processing setup (write *.nnkp)      :                 F             |
 |  Using Gamma-only branch of algorithms     :                 F             |
 |  CP code post-processing                   :                 F             |
 |  Wavefunction (UNK) file-type              :       unformatted             |
 |  Wavefunction spin channel                 :                up             |
 *----------------------------------------------------------------------------*
 *------------------------------- WANNIERISE ---------------------------------*
 |  Total number of iterations                :               500             |
 |  Number of CG steps before reset           :                 5             |
 |  Trial step length for line search         :             2.000             |
 |  Convergence tolerence                     :         0.100E-09             |
 |  Convergence window                        :                -1             |
 |  Iterations between writing output         :                50             |
 |  Iterations between backing up to disk     :               100             |
 |  Write r^2_nm to file                      :                 F             |
 |  Write xyz WF centres to file              :                 T             |
 |  Write on-site energies <0n|H|0n> to file  :                 F             |
 |  Use guiding centre to control phases      :                 T             |
 |  Use phases for initial projections        :                 F             |
 |  Iterations before starting guiding centres:                 0             |
 |  Iterations between using guiding centres  :                 1             |
 |  Perform selective localization            :                 F             |
 |  Use constrains in selective localization  :                 F             |
 |  Value of the Lagrange multiplier          :         0.100E+01             |
 *----------------------------------------------------------------------------*
 *------------------------------- DISENTANGLE --------------------------------*
 |  Using band disentanglement                :                 T             |
 |  Total number of iterations                :              4000             |
 |  Mixing ratio                              :             0.500             |
 |  Convergence tolerence                     :         1.000E-10             |
 |  Convergence window                        :                 3             |
 *----------------------------------------------------------------------------*
 *-------------------------------- PLOTTING ----------------------------------*
 |  Plotting Wannier functions                :                 F             |
 |   Size of supercell for plotting           :     2x    2x    2             |
 |   Plotting mode (molecule or crystal)      :           crystal             |
 |   Plotting mode for spinor WFs             :             total             |
 |   Include phase for spinor WFs             :                 T             |
 |   Plotting format                          :          xcrysden             |
 |   Plot radius                              :             3.500             |
 |   Plot scale                               :             1.000             |
 *----------------------------------------------------------------------------*
 |  Plotting Fermi surface                    :                 F             |
 |   Number of plotting points (along b_1)    :                50             |
 |   Plotting format                          :          xcrysden             |
 *----------------------------------------------------------------------------*
 |  Plotting interpolated bandstructure       :                 T             |
 |   Number of K-path sections                :                 3             |
 |   Divisions along first K-path section     :               100             |
 |   Output format                            :           gnuplot             |
 |   Output mode                              :               s-k             |
 *----------------------------------------------------------------------------*
 |   K-space path sections:                                                   |
 |    From: Γ      0.000  0.000  0.000     To: K       0.333  0.333  0.000   |
 |    From: K       0.333  0.333  0.000     To: M       0.500  0.000  0.000   |
 |    From: M       0.500  0.000  0.000     To: Γ      0.000  0.000  0.000   |
 *----------------------------------------------------------------------------*
 |  Plotting Hamiltonian in WF basis          :                 T             |
 *----------------------------------------------------------------------------*
 |  Writing data for Van der Waals post-proc  :                 F             |
 *----------------------------------------------------------------------------*
 *------------------------------- TRANSPORT ----------------------------------*
 |  Transport mode                            :              bulk             |
 |   Hamiltonian from external files          :                 F             |
 |   System extended in                       :              none             |
 |   Centre of the unit cell to which WF are translated (fract. coords):      |
 |                                       0.000000,    0.000000,    0.000000   |
 |  Fermi energy (eV)                         :             0.000             |
 *----------------------------------------------------------------------------*
 Time to read parameters        0.027 (sec)

 *---------------------------------- K-MESH ----------------------------------*
 +----------------------------------------------------------------------------+
 |                    Distance to Nearest-Neighbour Shells                    |
 |                    ------------------------------------                    |
 |          Shell             Distance (Ang^-1)          Multiplicity         |
 |          -----             -----------------          ------------         |
 |             1                   0.175448                      6            |
 |             2                   0.265883                      2            |
 |             3                   0.303884                      6            |
 |             4                   0.318552                     12            |
 |             5                   0.350895                      6            |
 |             6                   0.403781                     12            |
 |             7                   0.440251                     12            |
 |             8                   0.464191                     12            |
 |             9                   0.526343                      6            |
 |            10                   0.531765                      2            |
 |            11                   0.534945                     24            |
 |            12                   0.559961                     12            |
 |            13                   0.589686                     12            |
 |            14                   0.607768                      6            |
 |            15                   0.612470                     12            |
 |            16                   0.632585                     12            |
 |            17                   0.637104                     12            |
 |            18                   0.663382                     12            |
 |            19                   0.686191                     24            |
 |            20                   0.701790                      6            |
 |            21                   0.705866                     24            |
 |            22                   0.748205                     12            |
 |            23                   0.750469                     12            |
 |            24                   0.764758                     12            |
 |            25                   0.797648                      2            |
 |            26                   0.804002                     12            |
 |            27                   0.807562                     12            |
 |            28                   0.809660                     24            |
 |            29                   0.816715                     12            |
 |            30                   0.826401                     24            |
 |            31                   0.846825                     24            |
 |            32                   0.853573                     12            |
 |            33                   0.871418                     12            |
 |            34                   0.877238                      6            |
 |            35                   0.880502                     12            |
 |            36                   0.911652                      6            |
 +----------------------------------------------------------------------------+
 | The b-vectors are chosen automatically                                     |
 | Shell:  1 Multiplicity:  6                                                 |
 | b-vector 1 :        0.000000    0.175448    0.000000      (Ang^-1)         |
 | b-vector 2 :        0.151942    0.087724    0.000000      (Ang^-1)         |
 | b-vector 3 :        0.000000   -0.175448    0.000000      (Ang^-1)         |
 | b-vector 4 :        0.151942   -0.087724    0.000000      (Ang^-1)         |
 | b-vector 5 :       -0.151942   -0.087724    0.000000      (Ang^-1)         |
 | b-vector 6 :       -0.151942    0.087724    0.000000      (Ang^-1)         |
 | Shell:  1 w_b   10.8288937      (Ang^2)                                    |
 | B1 condition is not satisfied: Adding another shell                        |
 | Shell:  2 Multiplicity:  2                                                 |
 | b-vector 1 :        0.000000    0.000000    0.265883      (Ang^-1)         |
 | b-vector 2 :        0.000000    0.000000   -0.265883      (Ang^-1)         |
 | Shell:  1 w_b   10.8288937      (Ang^2)                                    |
 | Shell:  2 w_b    7.0727819      (Ang^2)                                    |
 | The following shells are used:   1,  2                                     |
 +----------------------------------------------------------------------------+
 |                        Shell   # Nearest-Neighbours                        |
 |                        -----   --------------------                        |
 |                          1               6                                 |
 |                          2               2                                 |
 +----------------------------------------------------------------------------+
 | Completeness relation is fully satisfied [Eq. (B1), PRB 56, 12847 (1997)]  |
 +----------------------------------------------------------------------------+
 |                  b_k Vectors (Ang^-1) and Weights (Ang^2)                  |
 |                  ----------------------------------------                  |
 |            No.         b_k(x)      b_k(y)      b_k(z)        w_b           |
 |            ---        --------------------------------     --------        |
 |             1         0.000000    0.175448    0.000000    10.828894        |
 |             2         0.151942    0.087724    0.000000    10.828894        |
 |             3         0.000000   -0.175448    0.000000    10.828894        |
 |             4         0.151942   -0.087724    0.000000    10.828894        |
 |             5        -0.151942   -0.087724    0.000000    10.828894        |
 |             6        -0.151942    0.087724    0.000000    10.828894        |
 |             7         0.000000    0.000000    0.265883     7.072782        |
 |             8         0.000000    0.000000   -0.265883     7.072782        |
 +----------------------------------------------------------------------------+
 |                           b_k Directions (Ang^-1)                          |
 |                           -----------------------                          |
 |            No.           x           y           z                         |
 |            ---        --------------------------------                     |
 |             1         0.000000    0.175448    0.000000                     |
 |             2         0.151942    0.087724    0.000000                     |
 |             3         0.151942   -0.087724    0.000000                     |
 |             4         0.000000    0.000000    0.265883                     |
 +----------------------------------------------------------------------------+
  
 Time to get kmesh              0.017 (sec)
 *============================================================================*
 |                              MEMORY ESTIMATE                               |
 |         Maximum RAM allocated during each phase of the calculation         |
 *============================================================================*
 |                        Disentanglement          606.87 Mb                  |
 |                            Wannierise:          379.99 Mb                  |
 |                                                                            |
 |   N.B. by setting optimisation=0 memory usage will be reduced to:          |
 |                        Disentanglement          586.27 Mb                  |
 |                            Wannierise:          243.86 Mb                  |
 |   However, this will result in more i/o and slow down the calculation      |
 |                          plot_wannier:          379.99 Mb                  |
 *----------------------------------------------------------------------------*
  
 Starting a new Wannier90 calculation ...


 Reading overlaps from 1Fe_initialconf.mmn    :  Created on  8Sep2023 at 16:51:33

 Reading projections from 1Fe_initialconf.amn :  Created on  8Sep2023 at 16:30:17

 Time to read overlaps         63.314 (sec)

 *------------------------------- DISENTANGLE --------------------------------*
 +----------------------------------------------------------------------------+
 |                              Energy  Windows                               |
 |                              ---------------                               |
 |                   Outer:  -30.00000  to   30.00000  (eV)                   |
 |                   Inner:   -6.00000  to    2.50000  (eV)                   |
 +----------------------------------------------------------------------------+
 |                        K-points with Frozen States                         |
 |                        ---------------------------                         |
 |     1     2     3     4     5     6     7     8     9                      |
 +----------------------------------------------------------------------------+
   Number of target bands to extract:  352
 +----------------------------------------------------------------------------+
 |                                  Windows                                   |
 |                                  -------                                   |
 |               K-point      Ndimwin     Ndimfroz    Nfirstwin               |
 |               ----------------------------------------------               |
 |                   1          472          268         129                  |
 |                   2          472          277         129                  |
 |                   3          472          277         129                  |
 |                   4          472          277         129                  |
 |                   5          472          285         129                  |
 |                   6          472          277         129                  |
 |                   7          472          277         129                  |
 |                   8          472          277         129                  |
 |                   9          472          288         129                  |
 +----------------------------------------------------------------------------+

                   Unitarised projection of Wannier functions                  
                   ------------------------------------------                  
   A_mn = <psi_m|g_n> --> S = A.A^+ --> U = S^-1/2.A
   In dis_project... done
   Using an inner window (linner = T)
   In dis_proj_froz...
 K-point   1 ndimwin: 472 we want the 84 leading eigenvector(s) of QPQ
  lambda(  1)= -0.000000000000
  lambda(  2)= -0.000000000000
  lambda(  3)= -0.000000000000
  lambda(  4)= -0.000000000000
  lambda(  5)= -0.000000000000
  lambda(  6)= -0.000000000000
  lambda(  7)= -0.000000000000
  lambda(  8)= -0.000000000000
  lambda(  9)= -0.000000000000
  lambda( 10)= -0.000000000000
  lambda( 11)= -0.000000000000
  lambda( 12)= -0.000000000000
  lambda( 13)= -0.000000000000
  lambda( 14)= -0.000000000000
  lambda( 15)= -0.000000000000
  lambda( 16)= -0.000000000000
  lambda( 17)= -0.000000000000
  lambda( 18)= -0.000000000000
  lambda( 19)= -0.000000000000
  lambda( 20)= -0.000000000000
  lambda( 21)= -0.000000000000
  lambda( 22)= -0.000000000000
  lambda( 23)= -0.000000000000
  lambda( 24)= -0.000000000000
  lambda( 25)= -0.000000000000
  lambda( 26)= -0.000000000000
  lambda( 27)= -0.000000000000
  lambda( 28)= -0.000000000000
  lambda( 29)= -0.000000000000
  lambda( 30)= -0.000000000000
  lambda( 31)= -0.000000000000
  lambda( 32)= -0.000000000000
  lambda( 33)= -0.000000000000
  lambda( 34)= -0.000000000000
  lambda( 35)= -0.000000000000
  lambda( 36)= -0.000000000000
  lambda( 37)= -0.000000000000
  lambda( 38)= -0.000000000000
  lambda( 39)= -0.000000000000
  lambda( 40)= -0.000000000000
  lambda( 41)= -0.000000000000
  lambda( 42)= -0.000000000000
  lambda( 43)= -0.000000000000
  lambda( 44)= -0.000000000000
  lambda( 45)= -0.000000000000
  lambda( 46)= -0.000000000000
  lambda( 47)= -0.000000000000
  lambda( 48)= -0.000000000000
  lambda( 49)= -0.000000000000
  lambda( 50)= -0.000000000000
  lambda( 51)= -0.000000000000
  lambda( 52)= -0.000000000000
  lambda( 53)= -0.000000000000
  lambda( 54)= -0.000000000000
  lambda( 55)= -0.000000000000
  lambda( 56)= -0.000000000000
  lambda( 57)= -0.000000000000
  lambda( 58)= -0.000000000000
  lambda( 59)= -0.000000000000
  lambda( 60)= -0.000000000000
  lambda( 61)= -0.000000000000
  lambda( 62)= -0.000000000000
  lambda( 63)= -0.000000000000
  lambda( 64)= -0.000000000000
  lambda( 65)= -0.000000000000
  lambda( 66)= -0.000000000000
  lambda( 67)= -0.000000000000
  lambda( 68)= -0.000000000000
  lambda( 69)= -0.000000000000
  lambda( 70)= -0.000000000000
  lambda( 71)= -0.000000000000
  lambda( 72)= -0.000000000000
  lambda( 73)= -0.000000000000
  lambda( 74)= -0.000000000000
  lambda( 75)= -0.000000000000
  lambda( 76)= -0.000000000000
  lambda( 77)= -0.000000000000
  lambda( 78)= -0.000000000000
  lambda( 79)= -0.000000000000
  lambda( 80)= -0.000000000000
  lambda( 81)= -0.000000000000
  lambda( 82)= -0.000000000000
  lambda( 83)= -0.000000000000
  lambda( 84)= -0.000000000000
  lambda( 85)= -0.000000000000
  lambda( 86)= -0.000000000000
  lambda( 87)= -0.000000000000
  lambda( 88)= -0.000000000000
  lambda( 89)= -0.000000000000
  lambda( 90)= -0.000000000000
  lambda( 91)= -0.000000000000
  lambda( 92)= -0.000000000000
  lambda( 93)= -0.000000000000
  lambda( 94)= -0.000000000000
  lambda( 95)= -0.000000000000
  lambda( 96)= -0.000000000000
  lambda( 97)= -0.000000000000
  lambda( 98)= -0.000000000000
  lambda( 99)= -0.000000000000
  lambda(100)= -0.000000000000
  lambda(101)= -0.000000000000
  lambda(102)= -0.000000000000
  lambda(103)= -0.000000000000
  lambda(104)= -0.000000000000
  lambda(105)= -0.000000000000
  lambda(106)= -0.000000000000
  lambda(107)= -0.000000000000
  lambda(108)= -0.000000000000
  lambda(109)= -0.000000000000
  lambda(110)= -0.000000000000
  lambda(111)= -0.000000000000
  lambda(112)= -0.000000000000
  lambda(113)= -0.000000000000
  lambda(114)= -0.000000000000
  lambda(115)= -0.000000000000
  lambda(116)= -0.000000000000
  lambda(117)= -0.000000000000
  lambda(118)= -0.000000000000
  lambda(119)= -0.000000000000
  lambda(120)= -0.000000000000
  lambda(121)= -0.000000000000
  lambda(122)= -0.000000000000
  lambda(123)= -0.000000000000
  lambda(124)= -0.000000000000
  lambda(125)= -0.000000000000
  lambda(126)= -0.000000000000
  lambda(127)= -0.000000000000
  lambda(128)= -0.000000000000
  lambda(129)= -0.000000000000
  lambda(130)= -0.000000000000
  lambda(131)= -0.000000000000
  lambda(132)= -0.000000000000
  lambda(133)= -0.000000000000
  lambda(134)=  0.000000000000
  lambda(135)=  0.000000000000
  lambda(136)=  0.000000000000
  lambda(137)=  0.000000000000
  lambda(138)=  0.000000000000
  lambda(139)=  0.000000000000
  lambda(140)=  0.000000000000
  lambda(141)=  0.000000000000
  lambda(142)=  0.000000000000
  lambda(143)=  0.000000000000
  lambda(144)=  0.000000000000
  lambda(145)=  0.000000000000
  lambda(146)=  0.000000000000
  lambda(147)=  0.000000000000
  lambda(148)=  0.000000000000
  lambda(149)=  0.000000000000
  lambda(150)=  0.000000000000
  lambda(151)=  0.000000000000
  lambda(152)=  0.000000000000
  lambda(153)=  0.000000000000
  lambda(154)=  0.000000000000
  lambda(155)=  0.000000000000
  lambda(156)=  0.000000000000
  lambda(157)=  0.000000000000
  lambda(158)=  0.000000000000
  lambda(159)=  0.000000000000
  lambda(160)=  0.000000000000
  lambda(161)=  0.000000000000
  lambda(162)=  0.000000000000
  lambda(163)=  0.000000000000
  lambda(164)=  0.000000000000
  lambda(165)=  0.000000000000
  lambda(166)=  0.000000000000
  lambda(167)=  0.000000000000
  lambda(168)=  0.000000000000
  lambda(169)=  0.000000000000
  lambda(170)=  0.000000000000
  lambda(171)=  0.000000000000
  lambda(172)=  0.000000000000
  lambda(173)=  0.000000000000
  lambda(174)=  0.000000000000
  lambda(175)=  0.000000000000
  lambda(176)=  0.000000000000
  lambda(177)=  0.000000000000
  lambda(178)=  0.000000000000
  lambda(179)=  0.000000000000
  lambda(180)=  0.000000000000
  lambda(181)=  0.000000000000
  lambda(182)=  0.000000000000
  lambda(183)=  0.000000000000
  lambda(184)=  0.000000000000
  lambda(185)=  0.000000000000
  lambda(186)=  0.000000000000
  lambda(187)=  0.000000000000
  lambda(188)=  0.000000000000
  lambda(189)=  0.000000000000
  lambda(190)=  0.000000000000
  lambda(191)=  0.000000000000
  lambda(192)=  0.000000000000
  lambda(193)=  0.000000000000
  lambda(194)=  0.000000000000
  lambda(195)=  0.000000000000
  lambda(196)=  0.000000000000
  lambda(197)=  0.000000000000
  lambda(198)=  0.000000000000
  lambda(199)=  0.000000000000
  lambda(200)=  0.000000000000
  lambda(201)=  0.000000000000
  lambda(202)=  0.000000000000
  lambda(203)=  0.000000000000
  lambda(204)=  0.000000000000
  lambda(205)=  0.000000000000
  lambda(206)=  0.000000000000
  lambda(207)=  0.000000000000
  lambda(208)=  0.000000000000
  lambda(209)=  0.000000000000
  lambda(210)=  0.000000000000
  lambda(211)=  0.000000000000
  lambda(212)=  0.000000000000
  lambda(213)=  0.000000000000
  lambda(214)=  0.000000000000
  lambda(215)=  0.000000000000
  lambda(216)=  0.000000000000
  lambda(217)=  0.000000000000
  lambda(218)=  0.000000000000
  lambda(219)=  0.000000000000
  lambda(220)=  0.000000000000
  lambda(221)=  0.000000000000
  lambda(222)=  0.000000000000
  lambda(223)=  0.000000000000
  lambda(224)=  0.000000000000
  lambda(225)=  0.000000000000
  lambda(226)=  0.000000000000
  lambda(227)=  0.000000000000
  lambda(228)=  0.000000000000
  lambda(229)=  0.000000000000
  lambda(230)=  0.000000000000
  lambda(231)=  0.000000000000
  lambda(232)=  0.000000000000
  lambda(233)=  0.000000000000
  lambda(234)=  0.000000000000
  lambda(235)=  0.000000000000
  lambda(236)=  0.000000000000
  lambda(237)=  0.000000000000
  lambda(238)=  0.000000000000
  lambda(239)=  0.000000000000
  lambda(240)=  0.000000000000
  lambda(241)=  0.000000000000
  lambda(242)=  0.000000000000
  lambda(243)=  0.000000000000
  lambda(244)=  0.000000000000
  lambda(245)=  0.000000000000
  lambda(246)=  0.000000000000
  lambda(247)=  0.000000000000
  lambda(248)=  0.000000000000
  lambda(249)=  0.000000000000
  lambda(250)=  0.000000000000
  lambda(251)=  0.000000000000
  lambda(252)=  0.000000000000
  lambda(253)=  0.000000000000
  lambda(254)=  0.000000000000
  lambda(255)=  0.000000000000
  lambda(256)=  0.000000000000
  lambda(257)=  0.000000000000
  lambda(258)=  0.000000000000
  lambda(259)=  0.000000000000
  lambda(260)=  0.000000000000
  lambda(261)=  0.000000000000
  lambda(262)=  0.000000000000
  lambda(263)=  0.000000000000
  lambda(264)=  0.000000000000
  lambda(265)=  0.000000000000
  lambda(266)=  0.000000000000
  lambda(267)=  0.000000000000
  lambda(268)=  0.000000000000
  lambda(269)=  0.000000000000
  lambda(270)=  0.000000000001
  lambda(271)=  0.000000035966
  lambda(272)=  0.000000296921
  lambda(273)=  0.000001237641
  lambda(274)=  0.000055387475
  lambda(275)=  0.000065808141
  lambda(276)=  0.000101261019
  lambda(277)=  0.000101295567
  lambda(278)=  0.000101299140
  lambda(279)=  0.000101333076
  lambda(280)=  0.000101338244
  lambda(281)=  0.000101345351
  lambda(282)=  0.000202542326
  lambda(283)=  0.001080836748
  lambda(284)=  0.001296444896
  lambda(285)=  0.001296459695
  lambda(286)=  0.001296472778
  lambda(287)=  0.001296568296
  lambda(288)=  0.001296584947
  lambda(289)=  0.001296639018
  lambda(290)=  0.002412490803
  lambda(291)=  0.002412560189
  lambda(292)=  0.002413031826
  lambda(293)=  0.002413076991
  lambda(294)=  0.002413405658
  lambda(295)=  0.002413926370
  lambda(296)=  0.016680089907
  lambda(297)=  0.016680381081
  lambda(298)=  0.016680600647
  lambda(299)=  0.016680659179
  lambda(300)=  0.016680909614
  lambda(301)=  0.016680932674
  lambda(302)=  0.017100836288
  lambda(303)=  0.017101056911
  lambda(304)=  0.017101376224
  lambda(305)=  0.017101402325
  lambda(306)=  0.017101625740
  lambda(307)=  0.017101658001
  lambda(308)=  0.019622024675
  lambda(309)=  0.020042109581
  lambda(310)=  0.025727579070
  lambda(311)=  0.025751679908
  lambda(312)=  0.025752887451
  lambda(313)=  0.026770076676
  lambda(314)=  0.026787015274
  lambda(315)=  0.026787278442
  lambda(316)=  0.030546778846
  lambda(317)=  0.030546959281
  lambda(318)=  0.030547822935
  lambda(319)=  0.030548143465
  lambda(320)=  0.030550532920
  lambda(321)=  0.030551356204
  lambda(322)=  0.038132365219
  lambda(323)=  0.038163380121
  lambda(324)=  0.038164871977
  lambda(325)=  0.045151476920
  lambda(326)=  0.046762114906
  lambda(327)=  0.051817247120
  lambda(328)=  0.051819186723
  lambda(329)=  0.051819789133
  lambda(330)=  0.053935851473
  lambda(331)=  0.053937679122
  lambda(332)=  0.053938355344
  lambda(333)=  0.073781693919
  lambda(334)=  0.073786369305
  lambda(335)=  0.073787918141
  lambda(336)=  0.088614473787
  lambda(337)=  0.088614501123
  lambda(338)=  0.088614696064
  lambda(339)=  0.088616721935
  lambda(340)=  0.088616875462
  lambda(341)=  0.088617140569
  lambda(342)=  0.088713923738
  lambda(343)=  0.089349834623
  lambda(344)=  0.089353760623
  lambda(345)=  0.096900798397
  lambda(346)=  0.096905267913
  lambda(347)=  0.096916985012
  lambda(348)=  0.105052866109
  lambda(349)=  0.115745230044
  lambda(350)=  0.115746937559
  lambda(351)=  0.115751207399
  lambda(352)=  0.117235067230
  lambda(353)=  0.117237092734
  lambda(354)=  0.117241752766
  lambda(355)=  0.117242589526
  lambda(356)=  0.117244359653
  lambda(357)=  0.117244553969
  lambda(358)=  0.129087491191
  lambda(359)=  0.129093486754
  lambda(360)=  0.129103829358
  lambda(361)=  0.137434522419
  lambda(362)=  0.137440507075
  lambda(363)=  0.137450814174
  lambda(364)=  0.142511220426
  lambda(365)=  0.142511677369
  lambda(366)=  0.144113336518
  lambda(367)=  0.147688055099
  lambda(368)=  0.147689606249
  lambda(369)=  0.147690355325
  lambda(370)=  0.157737643533
  lambda(371)=  0.157738041880
  lambda(372)=  0.157739382585
  lambda(373)=  0.157740156597
  lambda(374)=  0.157744170672
  lambda(375)=  0.157746067841
  lambda(376)=  0.176860270127
  lambda(377)=  0.176860522266
  lambda(378)=  0.176861224524
  lambda(379)=  0.176861388082
  lambda(380)=  0.176865456716
  lambda(381)=  0.176866336802
  lambda(382)=  0.184591861013
  lambda(383)=  0.184593695945
  lambda(384)=  0.184619273374
  lambda(385)=  0.211492622474
  lambda(386)=  0.215344080064
  lambda(387)=  0.215345036514
  lambda(388)=  0.215350664008
  lambda(389)=  1.000000000000
  lambda(390)=  1.000000000000
  lambda(391)=  1.000000000000
  lambda(392)=  1.000000000000
  lambda(393)=  1.000000000000
  lambda(394)=  1.000000000000
  lambda(395)=  1.000000000000
  lambda(396)=  1.000000000000
  lambda(397)=  1.000000000000
  lambda(398)=  1.000000000000
  lambda(399)=  1.000000000000
  lambda(400)=  1.000000000000
  lambda(401)=  1.000000000000
  lambda(402)=  1.000000000000
  lambda(403)=  1.000000000000
  lambda(404)=  1.000000000000
  lambda(405)=  1.000000000000
  lambda(406)=  1.000000000000
  lambda(407)=  1.000000000000
  lambda(408)=  1.000000000000
  lambda(409)=  1.000000000000
  lambda(410)=  1.000000000000
  lambda(411)=  1.000000000000
  lambda(412)=  1.000000000000
  lambda(413)=  1.000000000000
  lambda(414)=  1.000000000000
  lambda(415)=  1.000000000000
  lambda(416)=  1.000000000000
  lambda(417)=  1.000000000000
  lambda(418)=  1.000000000000
  lambda(419)=  1.000000000000
  lambda(420)=  1.000000000000
  lambda(421)=  1.000000000000
  lambda(422)=  1.000000000000
  lambda(423)=  1.000000000000
  lambda(424)=  1.000000000000
  lambda(425)=  1.000000000000
  lambda(426)=  1.000000000000
  lambda(427)=  1.000000000000
  lambda(428)=  1.000000000000
  lambda(429)=  1.000000000000
  lambda(430)=  1.000000000000
  lambda(431)=  1.000000000000
  lambda(432)=  1.000000000000
  lambda(433)=  1.000000000000
  lambda(434)=  1.000000000000
  lambda(435)=  1.000000000000
  lambda(436)=  1.000000000000
  lambda(437)=  1.000000000000
  lambda(438)=  1.000000000000
  lambda(439)=  1.000000000000
  lambda(440)=  1.000000000000
  lambda(441)=  1.000000000000
  lambda(442)=  1.000000000000
  lambda(443)=  1.000000000000
  lambda(444)=  1.000000000000
  lambda(445)=  1.000000000000
  lambda(446)=  1.000000000000
  lambda(447)=  1.000000000000
  lambda(448)=  1.000000000000
  lambda(449)=  1.000000000000
  lambda(450)=  1.000000000000
  lambda(451)=  1.000000000000
  lambda(452)=  1.000000000000
  lambda(453)=  1.000000000000
  lambda(454)=  1.000000000000
  lambda(455)=  1.000000000000
  lambda(456)=  1.000000000000
  lambda(457)=  1.000000000000
  lambda(458)=  1.000000000000
  lambda(459)=  1.000000000000
  lambda(460)=  1.000000000000
  lambda(461)=  1.000000000000
  lambda(462)=  1.000000000000
  lambda(463)=  1.000000000000
  lambda(464)=  1.000000000000
  lambda(465)=  1.000000000000
  lambda(466)=  1.000000000000
  lambda(467)=  1.000000000000
  lambda(468)=  1.000000000000
  lambda(469)=  1.000000000000
  lambda(470)=  1.000000000000
  lambda(471)=  1.000000000000
  lambda(472)=  1.000000000000

 K-point   2 ndimwin: 472 we want the 75 leading eigenvector(s) of QPQ
  lambda(  1)= -0.000000000000
  lambda(  2)= -0.000000000000
  lambda(  3)= -0.000000000000
  lambda(  4)= -0.000000000000
  lambda(  5)= -0.000000000000
  lambda(  6)= -0.000000000000
  lambda(  7)= -0.000000000000
  lambda(  8)= -0.000000000000
  lambda(  9)= -0.000000000000
  lambda( 10)= -0.000000000000
  lambda( 11)= -0.000000000000
  lambda( 12)= -0.000000000000
  lambda( 13)= -0.000000000000
  lambda( 14)= -0.000000000000
  lambda( 15)= -0.000000000000
  lambda( 16)= -0.000000000000
  lambda( 17)= -0.000000000000
  lambda( 18)= -0.000000000000
  lambda( 19)= -0.000000000000
  lambda( 20)= -0.000000000000
  lambda( 21)= -0.000000000000
  lambda( 22)= -0.000000000000
  lambda( 23)= -0.000000000000
  lambda( 24)= -0.000000000000
  lambda( 25)= -0.000000000000
  lambda( 26)= -0.000000000000
  lambda( 27)= -0.000000000000
  lambda( 28)= -0.000000000000
  lambda( 29)= -0.000000000000
  lambda( 30)= -0.000000000000
  lambda( 31)= -0.000000000000
  lambda( 32)= -0.000000000000
  lambda( 33)= -0.000000000000
  lambda( 34)= -0.000000000000
  lambda( 35)= -0.000000000000
  lambda( 36)= -0.000000000000
  lambda( 37)= -0.000000000000
  lambda( 38)= -0.000000000000
  lambda( 39)= -0.000000000000
  lambda( 40)= -0.000000000000
  lambda( 41)= -0.000000000000
  lambda( 42)= -0.000000000000
  lambda( 43)= -0.000000000000
  lambda( 44)= -0.000000000000
  lambda( 45)= -0.000000000000
  lambda( 46)= -0.000000000000
  lambda( 47)= -0.000000000000
  lambda( 48)= -0.000000000000
  lambda( 49)= -0.000000000000
  lambda( 50)= -0.000000000000
  lambda( 51)= -0.000000000000
  lambda( 52)= -0.000000000000
  lambda( 53)= -0.000000000000
  lambda( 54)= -0.000000000000
  lambda( 55)= -0.000000000000
  lambda( 56)= -0.000000000000
  lambda( 57)= -0.000000000000
  lambda( 58)= -0.000000000000
  lambda( 59)= -0.000000000000
  lambda( 60)= -0.000000000000
  lambda( 61)= -0.000000000000
  lambda( 62)= -0.000000000000
  lambda( 63)= -0.000000000000
  lambda( 64)= -0.000000000000
  lambda( 65)= -0.000000000000
  lambda( 66)= -0.000000000000
  lambda( 67)= -0.000000000000
  lambda( 68)= -0.000000000000
  lambda( 69)= -0.000000000000
  lambda( 70)= -0.000000000000
  lambda( 71)= -0.000000000000
  lambda( 72)= -0.000000000000
  lambda( 73)= -0.000000000000
  lambda( 74)= -0.000000000000
  lambda( 75)= -0.000000000000
  lambda( 76)= -0.000000000000
  lambda( 77)= -0.000000000000
  lambda( 78)= -0.000000000000
  lambda( 79)= -0.000000000000
  lambda( 80)= -0.000000000000
  lambda( 81)= -0.000000000000
  lambda( 82)= -0.000000000000
  lambda( 83)= -0.000000000000
  lambda( 84)= -0.000000000000
  lambda( 85)= -0.000000000000
  lambda( 86)= -0.000000000000
  lambda( 87)= -0.000000000000
  lambda( 88)= -0.000000000000
  lambda( 89)= -0.000000000000
  lambda( 90)= -0.000000000000
  lambda( 91)= -0.000000000000
  lambda( 92)= -0.000000000000
  lambda( 93)= -0.000000000000
  lambda( 94)= -0.000000000000
  lambda( 95)= -0.000000000000
  lambda( 96)= -0.000000000000
  lambda( 97)= -0.000000000000
  lambda( 98)= -0.000000000000
  lambda( 99)= -0.000000000000
  lambda(100)= -0.000000000000
  lambda(101)= -0.000000000000
  lambda(102)= -0.000000000000
  lambda(103)= -0.000000000000
  lambda(104)= -0.000000000000
  lambda(105)= -0.000000000000
  lambda(106)= -0.000000000000
  lambda(107)= -0.000000000000
  lambda(108)= -0.000000000000
  lambda(109)= -0.000000000000
  lambda(110)= -0.000000000000
  lambda(111)= -0.000000000000
  lambda(112)= -0.000000000000
  lambda(113)= -0.000000000000
  lambda(114)= -0.000000000000
  lambda(115)= -0.000000000000
  lambda(116)= -0.000000000000
  lambda(117)= -0.000000000000
  lambda(118)= -0.000000000000
  lambda(119)= -0.000000000000
  lambda(120)= -0.000000000000
  lambda(121)= -0.000000000000
  lambda(122)= -0.000000000000
  lambda(123)= -0.000000000000
  lambda(124)= -0.000000000000
  lambda(125)= -0.000000000000
  lambda(126)= -0.000000000000
  lambda(127)= -0.000000000000
  lambda(128)= -0.000000000000
  lambda(129)= -0.000000000000
  lambda(130)= -0.000000000000
  lambda(131)= -0.000000000000
  lambda(132)= -0.000000000000
  lambda(133)= -0.000000000000
  lambda(134)= -0.000000000000
  lambda(135)= -0.000000000000
  lambda(136)= -0.000000000000
  lambda(137)=  0.000000000000
  lambda(138)=  0.000000000000
  lambda(139)=  0.000000000000
  lambda(140)=  0.000000000000
  lambda(141)=  0.000000000000
  lambda(142)=  0.000000000000
  lambda(143)=  0.000000000000
  lambda(144)=  0.000000000000
  lambda(145)=  0.000000000000
  lambda(146)=  0.000000000000
  lambda(147)=  0.000000000000
  lambda(148)=  0.000000000000
  lambda(149)=  0.000000000000
  lambda(150)=  0.000000000000
  lambda(151)=  0.000000000000
  lambda(152)=  0.000000000000
  lambda(153)=  0.000000000000
  lambda(154)=  0.000000000000
  lambda(155)=  0.000000000000
  lambda(156)=  0.000000000000
  lambda(157)=  0.000000000000
  lambda(158)=  0.000000000000
  lambda(159)=  0.000000000000
  lambda(160)=  0.000000000000
  lambda(161)=  0.000000000000
  lambda(162)=  0.000000000000
  lambda(163)=  0.000000000000
  lambda(164)=  0.000000000000
  lambda(165)=  0.000000000000
  lambda(166)=  0.000000000000
  lambda(167)=  0.000000000000
  lambda(168)=  0.000000000000
  lambda(169)=  0.000000000000
  lambda(170)=  0.000000000000
  lambda(171)=  0.000000000000
  lambda(172)=  0.000000000000
  lambda(173)=  0.000000000000
  lambda(174)=  0.000000000000
  lambda(175)=  0.000000000000
  lambda(176)=  0.000000000000
  lambda(177)=  0.000000000000
  lambda(178)=  0.000000000000
  lambda(179)=  0.000000000000
  lambda(180)=  0.000000000000
  lambda(181)=  0.000000000000
  lambda(182)=  0.000000000000
  lambda(183)=  0.000000000000
  lambda(184)=  0.000000000000
  lambda(185)=  0.000000000000
  lambda(186)=  0.000000000000
  lambda(187)=  0.000000000000
  lambda(188)=  0.000000000000
  lambda(189)=  0.000000000000
  lambda(190)=  0.000000000000
  lambda(191)=  0.000000000000
  lambda(192)=  0.000000000000
  lambda(193)=  0.000000000000
  lambda(194)=  0.000000000000
  lambda(195)=  0.000000000000
  lambda(196)=  0.000000000000
  lambda(197)=  0.000000000000
  lambda(198)=  0.000000000000
  lambda(199)=  0.000000000000
  lambda(200)=  0.000000000000
  lambda(201)=  0.000000000000
  lambda(202)=  0.000000000000
  lambda(203)=  0.000000000000
  lambda(204)=  0.000000000000
  lambda(205)=  0.000000000000
  lambda(206)=  0.000000000000
  lambda(207)=  0.000000000000
  lambda(208)=  0.000000000000
  lambda(209)=  0.000000000000
  lambda(210)=  0.000000000000
  lambda(211)=  0.000000000000
  lambda(212)=  0.000000000000
  lambda(213)=  0.000000000000
  lambda(214)=  0.000000000000
  lambda(215)=  0.000000000000
  lambda(216)=  0.000000000000
  lambda(217)=  0.000000000000
  lambda(218)=  0.000000000000
  lambda(219)=  0.000000000000
  lambda(220)=  0.000000000000
  lambda(221)=  0.000000000000
  lambda(222)=  0.000000000000
  lambda(223)=  0.000000000000
  lambda(224)=  0.000000000000
  lambda(225)=  0.000000000000
  lambda(226)=  0.000000000000
  lambda(227)=  0.000000000000
  lambda(228)=  0.000000000000
  lambda(229)=  0.000000000000
  lambda(230)=  0.000000000000
  lambda(231)=  0.000000000000
  lambda(232)=  0.000000000000
  lambda(233)=  0.000000000000
  lambda(234)=  0.000000000000
  lambda(235)=  0.000000000000
  lambda(236)=  0.000000000000
  lambda(237)=  0.000000000000
  lambda(238)=  0.000000000000
  lambda(239)=  0.000000000000
  lambda(240)=  0.000000000000
  lambda(241)=  0.000000000000
  lambda(242)=  0.000000000000
  lambda(243)=  0.000000000000
  lambda(244)=  0.000000000000
  lambda(245)=  0.000000000000
  lambda(246)=  0.000000000000
  lambda(247)=  0.000000000000
  lambda(248)=  0.000000000000
  lambda(249)=  0.000000000000
  lambda(250)=  0.000000000000
  lambda(251)=  0.000000000000
  lambda(252)=  0.000000000000
  lambda(253)=  0.000000000000
  lambda(254)=  0.000000000000
  lambda(255)=  0.000000000000
  lambda(256)=  0.000000000000
  lambda(257)=  0.000000000000
  lambda(258)=  0.000000000000
  lambda(259)=  0.000000000000
  lambda(260)=  0.000000000000
  lambda(261)=  0.000000000000
[...]
  WF centre   26  (  6.892086, -0.040295,  1.677152 )
  WF centre   27  (  6.892109,  0.134348,  1.677154 )
  WF centre   28  (  6.892307,  0.175273,  1.677152 )
  WF centre   29  (  6.892119, -0.124036,  1.677154 )
  WF centre   30  (  6.891790, -0.170617,  1.677152 )
  WF centre   31  ( 10.338125, -0.008889,  1.677154 )
  WF centre   32  ( 10.338138, -0.002028,  1.677154 )
  WF centre   33  ( 10.338133,  0.040717,  1.677159 )
  WF centre   34  ( 10.338128,  0.040014,  1.677152 )
  WF centre   35  ( 10.338128, -0.040999,  1.677159 )
  WF centre   36  ( 10.338128, -0.040296,  1.677152 )
  WF centre   37  ( 10.338152,  0.134357,  1.677154 )
  WF centre   38  ( 10.338271,  0.175273,  1.677152 )
  WF centre   39  ( 10.338297, -0.123955,  1.677154 )
  WF centre   40  ( 10.337932, -0.170638,  1.677152 )
  WF centre   41  (  8.615088,  2.975491,  1.677154 )
  WF centre   42  (  8.615121,  2.982340,  1.677155 )
  WF centre   43  (  8.615111,  3.025078,  1.677159 )
  WF centre   44  (  8.615106,  3.024376,  1.677152 )
  WF centre   45  (  8.615108,  2.943366,  1.677159 )
  WF centre   46  (  8.615107,  2.944068,  1.677152 )
  WF centre   47  (  8.615142,  3.118596,  1.677154 )
  WF centre   48  (  8.615365,  3.159669,  1.677152 )
  WF centre   49  (  8.615295,  2.860437,  1.677154 )
  WF centre   50  (  8.614756,  2.813735,  1.677152 )
  WF centre   51  (  6.892078,  5.959855,  1.677154 )
  WF centre   52  (  6.892098,  5.966701,  1.677154 )
  WF centre   53  (  6.892090,  6.009442,  1.677159 )
  WF centre   54  (  6.892085,  6.008736,  1.677152 )
  WF centre   55  (  6.892086,  5.927723,  1.677159 )
  WF centre   56  (  6.892086,  5.928428,  1.677152 )
  WF centre   57  (  6.892121,  6.102829,  1.677154 )
  WF centre   58  (  6.892284,  6.143995,  1.677152 )
  WF centre   59  (  6.892236,  5.844931,  1.677154 )
  WF centre   60  (  6.891816,  5.798098,  1.677152 )
  WF centre   61  (  5.169071,  8.944197,  1.677154 )
  WF centre   62  (  5.169064,  8.951064,  1.677155 )
  WF centre   63  (  5.169069,  8.993802,  1.677159 )
  WF centre   64  (  5.169061,  8.993097,  1.677152 )
  WF centre   65  (  5.169064,  8.912081,  1.677159 )
  WF centre   66  (  5.169064,  8.912790,  1.677152 )
  WF centre   67  (  5.169089,  9.087319,  1.677154 )
  WF centre   68  (  5.169142,  9.128336,  1.677152 )
  WF centre   69  (  5.169187,  8.829263,  1.677154 )
  WF centre   70  (  5.168942,  8.782455,  1.677152 )
  WF centre   71  (  1.723077,  8.944207,  1.677154 )
  WF centre   72  (  1.723022,  8.951061,  1.677155 )
  WF centre   73  (  1.723031,  8.993801,  1.677159 )
  WF centre   74  (  1.723021,  8.993096,  1.677152 )
  WF centre   75  (  1.723018,  8.912083,  1.677159 )
  WF centre   76  (  1.723021,  8.912789,  1.677152 )
  WF centre   77  (  1.723031,  9.087379,  1.677154 )
  WF centre   78  (  1.723120,  9.128326,  1.677152 )
  WF centre   79  (  1.723034,  8.829111,  1.677154 )
  WF centre   80  (  1.722880,  8.782464,  1.677152 )
  WF centre   81  ( -1.723003,  8.944197,  1.677154 )
  WF centre   82  ( -1.723008,  8.951066,  1.677155 )
  WF centre   83  ( -1.723012,  8.993798,  1.677159 )
  WF centre   84  ( -1.723019,  8.993096,  1.677152 )
  WF centre   85  ( -1.723022,  8.912085,  1.677159 )
  WF centre   86  ( -1.723021,  8.912789,  1.677152 )
  WF centre   87  ( -1.722963,  9.087496,  1.677154 )
  WF centre   88  ( -1.722842,  9.128351,  1.677152 )
  WF centre   89  ( -1.723006,  8.828991,  1.677154 )
  WF centre   90  ( -1.723244,  8.782465,  1.677152 )
  WF centre   91  ( -5.169096,  8.944189,  1.677154 )
  WF centre   92  ( -5.169050,  8.951068,  1.677155 )
  WF centre   93  ( -5.169061,  8.993800,  1.677159 )
  WF centre   94  ( -5.169062,  8.993097,  1.677152 )
  WF centre   95  ( -5.169063,  8.912083,  1.677159 )
  WF centre   96  ( -5.169063,  8.912790,  1.677152 )
  WF centre   97  ( -5.168993,  9.087435,  1.677154 )
  WF centre   98  ( -5.168912,  9.128358,  1.677152 )
  WF centre   99  ( -5.168930,  8.829144,  1.677154 )
  WF centre  100  ( -5.169254,  8.782455,  1.677152 )
  WF centre  101  (  5.169118,  2.975500,  1.677154 )
  WF centre  102  (  5.169073,  2.982338,  1.677155 )
  WF centre  103  (  5.169074,  3.025079,  1.677159 )
  WF centre  104  (  5.169065,  3.024377,  1.677152 )
  WF centre  105  (  5.169062,  2.943367,  1.677159 )
  WF centre  106  (  5.169065,  2.944068,  1.677152 )
  WF centre  107  (  5.169089,  3.118598,  1.677154 )
  WF centre  108  (  5.169215,  3.159667,  1.677152 )
  WF centre  109  (  5.169057,  2.860378,  1.677154 )
  WF centre  110  (  5.168862,  2.813741,  1.677152 )
  WF centre  111  (  3.446111,  5.959861,  1.677154 )
  WF centre  112  (  3.446037,  5.966705,  1.677155 )
  WF centre  113  (  3.446053,  6.009442,  1.677159 )
  WF centre  114  (  3.446041,  6.008736,  1.677152 )
  WF centre  115  (  3.446039,  5.927725,  1.677159 )
  WF centre  116  (  3.446042,  5.928432,  1.677152 )
  WF centre  117  (  3.446055,  6.102893,  1.677154 )
  WF centre  118  (  3.446073,  6.143973,  1.677152 )
  WF centre  119  (  3.446008,  5.844814,  1.677154 )
  WF centre  120  (  3.445987,  5.798121,  1.677152 )
  WF centre  121  (  0.000032,  5.959846,  1.677154 )
  WF centre  122  (  0.000001,  5.966707,  1.677155 )
  WF centre  123  (  0.000009,  6.009437,  1.677159 )
  WF centre  124  (  0.000001,  6.008736,  1.677152 )
  WF centre  125  ( -0.000002,  5.927731,  1.677159 )
  WF centre  126  ( -0.000000,  5.928431,  1.677152 )
  WF centre  127  (  0.000046,  6.103081,  1.677154 )
  WF centre  128  (  0.000052,  6.143998,  1.677152 )
  WF centre  129  ( -0.000006,  5.844624,  1.677154 )
  WF centre  130  ( -0.000062,  5.798115,  1.677152 )
  WF centre  131  (  1.723064,  2.975480,  1.677154 )
  WF centre  132  (  1.723016,  2.982340,  1.677156 )
  WF centre  133  (  1.723031,  3.025075,  1.677159 )
  WF centre  134  (  1.723020,  3.024377,  1.677152 )
  WF centre  135  (  1.723019,  2.943371,  1.677159 )
  WF centre  136  (  1.723020,  2.944070,  1.677152 )
  WF centre  137  (  1.723072,  3.118785,  1.677154 )
  WF centre  138  (  1.723017,  3.159666,  1.677152 )
  WF centre  139  (  1.722966,  2.860224,  1.677154 )
  WF centre  140  (  1.723021,  2.813742,  1.677152 )
  WF centre  141  ( -1.723049,  2.975472,  1.677154 )
  WF centre  142  ( -1.723011,  2.982342,  1.677155 )
  WF centre  143  ( -1.723018,  3.025074,  1.677159 )
  WF centre  144  ( -1.723019,  3.024376,  1.677152 )
  WF centre  145  ( -1.723021,  2.943369,  1.677159 )
  WF centre  146  ( -1.723021,  2.944069,  1.677152 )
  WF centre  147  ( -1.722967,  3.118781,  1.677154 )
  WF centre  148  ( -1.722931,  3.159672,  1.677152 )
  WF centre  149  ( -1.722864,  2.860284,  1.677154 )
  WF centre  150  ( -1.723128,  2.813736,  1.677152 )
  WF centre  151  ( -3.446085,  5.959843,  1.677154 )
  WF centre  152  ( -3.446023,  5.966709,  1.677155 )
  WF centre  153  ( -3.446040,  6.009439,  1.677159 )
  WF centre  154  ( -3.446040,  6.008735,  1.677152 )
  WF centre  155  ( -3.446041,  5.927726,  1.677159 )
  WF centre  156  ( -3.446042,  5.928432,  1.677152 )
  WF centre  157  ( -3.445974,  6.103007,  1.677154 )
  WF centre  158  ( -3.445822,  6.144002,  1.677152 )
  WF centre  159  ( -3.445866,  5.844753,  1.677154 )
  WF centre  160  ( -3.446322,  5.798116,  1.677152 )
  WF centre  161  (  1.723090,  0.988612, -0.089323 )
  WF centre  162  (  1.723019,  0.989067, -0.124194 )
  WF centre  163  (  1.722982,  0.972295,  0.051842 )
  WF centre  164  (  1.723026,  0.981778,  0.024800 )
  WF centre  165  (  1.723012,  1.023039,  0.051608 )
  WF centre  166  (  1.723022,  1.012446,  0.024694 )
  WF centre  167  (  1.723090,  0.988614,  3.443637 )
  WF centre  168  (  1.723019,  0.989064,  3.478500 )
  WF centre  169  (  1.722982,  0.972303,  3.302461 )
  WF centre  170  (  1.723026,  0.981771,  3.329513 )
  WF centre  171  (  1.723012,  1.023029,  3.302695 )
  WF centre  172  (  1.723022,  1.012457,  3.329619 )
  WF centre  173  (  5.169161,  0.988680, -0.089308 )
  WF centre  174  (  5.169068,  0.989066, -0.124192 )
  WF centre  175  (  5.169023,  0.972299,  0.051680 )
  WF centre  176  (  5.169089,  0.981778,  0.024801 )
  WF centre  177  (  5.169075,  1.023023,  0.051636 )
  WF centre  178  (  5.169068,  1.012443,  0.024695 )
  WF centre  179  (  5.169161,  0.988682,  3.443623 )
  WF centre  180  (  5.169068,  0.989063,  3.478498 )
  WF centre  181  (  5.169023,  0.972307,  3.302623 )
  WF centre  182  (  5.169089,  0.981771,  3.329511 )
  WF centre  183  (  5.169075,  1.023013,  3.302667 )
  WF centre  184  (  5.169069,  1.012453,  3.329617 )
  WF centre  185  (  8.614947,  0.988585, -0.089297 )
  WF centre  186  (  8.615104,  0.989065, -0.124194 )
  WF centre  187  (  8.615136,  0.972317,  0.051686 )
  WF centre  188  (  8.615138,  0.981777,  0.024799 )
  WF centre  189  (  8.615118,  1.023034,  0.051616 )
  WF centre  190  (  8.615106,  1.012444,  0.024693 )
  WF centre  191  (  8.614947,  0.988587,  3.443611 )
  WF centre  192  (  8.615104,  0.989062,  3.478500 )
  WF centre  193  (  8.615136,  0.972325,  3.302617 )
  WF centre  194  (  8.615138,  0.981769,  3.329513 )
  WF centre  195  (  8.615118,  1.023024,  3.302687 )
  WF centre  196  (  8.615106,  1.012454,  3.329620 )
  WF centre  197  ( 12.060986,  0.988517, -0.089312 )
  WF centre  198  ( 12.061150,  0.989067, -0.124195 )
  WF centre  199  ( 12.061185,  0.972314,  0.051848 )
  WF centre  200  ( 12.061170,  0.981777,  0.024798 )
  WF centre  201  ( 12.061153,  1.023050,  0.051587 )
  WF centre  202  ( 12.061157,  1.012446,  0.024692 )
  WF centre  203  ( 12.060986,  0.988519,  3.443626 )
  WF centre  204  ( 12.061151,  0.989064,  3.478501 )
  WF centre  205  ( 12.061185,  0.972321,  3.302455 )
  WF centre  206  ( 12.061170,  0.981770,  3.329515 )
  WF centre  207  ( 12.061153,  1.023040,  3.302716 )
  WF centre  208  ( 12.061157,  1.012457,  3.329621 )
  WF centre  209  ( 10.337912,  3.973035, -0.089301 )
  WF centre  210  ( 10.338129,  3.973432, -0.124193 )
  WF centre  211  ( 10.338177,  3.956687,  0.051806 )
  WF centre  212  ( 10.338158,  3.966142,  0.024799 )
  WF centre  213  ( 10.338125,  4.007365,  0.051581 )
  WF centre  214  ( 10.338131,  3.996803,  0.024694 )
  WF centre  215  ( 10.337912,  3.973037,  3.443615 )
  WF centre  216  ( 10.338129,  3.973429,  3.478499 )
  WF centre  217  ( 10.338177,  3.956695,  3.302497 )
  WF centre  218  ( 10.338158,  3.966135,  3.329513 )
  WF centre  219  ( 10.338125,  4.007355,  3.302722 )
  WF centre  220  ( 10.338131,  3.996814,  3.329619 )
  WF centre  221  (  8.614936,  6.957299, -0.089286 )
  WF centre  222  (  8.615111,  6.957788, -0.124192 )
  WF centre  223  (  8.615146,  6.941042,  0.051834 )
  WF centre  224  (  8.615134,  6.950497,  0.024801 )
  WF centre  225  (  8.615103,  6.991752,  0.051464 )
  WF centre  226  (  8.615111,  6.981170,  0.024695 )
  WF centre  227  (  8.614936,  6.957301,  3.443601 )
  WF centre  228  (  8.615111,  6.957785,  3.478498 )
  WF centre  229  (  8.615146,  6.941050,  3.302469 )
  WF centre  230  (  8.615135,  6.950490,  3.329511 )
  WF centre  231  (  8.615103,  6.991742,  3.302839 )
  WF centre  232  (  8.615111,  6.981181,  3.329618 )
  WF centre  233  (  6.891958,  9.941515, -0.089297 )
  WF centre  234  (  6.892085,  9.942151, -0.124193 )
  WF centre  235  (  6.892107,  9.925401,  0.051877 )
  WF centre  236  (  6.892098,  9.934864,  0.024800 )
  WF centre  237  (  6.892082,  9.976164,  0.051470 )
  WF centre  238  (  6.892088,  9.965544,  0.024693 )
  WF centre  239  (  6.891958,  9.941517,  3.443612 )
  WF centre  240  (  6.892085,  9.942148,  3.478499 )
  WF centre  241  (  6.892107,  9.925409,  3.302426 )
  WF centre  242  (  6.892098,  9.934856,  3.329513 )
  WF centre  243  (  6.892082,  9.976155,  3.302833 )
  WF centre  244  (  6.892088,  9.965553,  3.329619 )
  WF centre  245  (  3.445929,  9.941573, -0.089293 )
  WF centre  246  (  3.446041,  9.942149, -0.124195 )
  WF centre  247  (  3.446058,  9.925395,  0.051770 )
  WF centre  248  (  3.446061,  9.934858,  0.024799 )
  WF centre  249  (  3.446059,  9.976149,  0.051494 )
  WF centre  250  (  3.446045,  9.965537,  0.024692 )
  WF centre  251  (  3.445929,  9.941576,  3.443607 )
  WF centre  252  (  3.446041,  9.942146,  3.478501 )
  WF centre  253  (  3.446058,  9.925403,  3.302533 )
  WF centre  254  (  3.446061,  9.934851,  3.329514 )
  WF centre  255  (  3.446059,  9.976139,  3.302809 )
  WF centre  256  (  3.446045,  9.965548,  3.329621 )
  WF centre  257  (  0.000049,  9.941726, -0.089305 )
  WF centre  258  (  0.000000,  9.942151, -0.124187 )
  WF centre  259  ( -0.000030,  9.925368,  0.051762 )
  WF centre  260  (  0.000029,  9.934858,  0.024806 )
  WF centre  261  (  0.000011,  9.976131,  0.051532 )
  WF centre  262  (  0.000003,  9.965532,  0.024700 )
  WF centre  263  (  0.000049,  9.941729,  3.443620 )
  WF centre  264  (  0.000000,  9.942148,  3.478493 )
  WF centre  265  ( -0.000030,  9.925376,  3.302541 )
  WF centre  266  (  0.000029,  9.934851,  3.329507 )
  WF centre  267  (  0.000011,  9.976121,  3.302771 )
  WF centre  268  (  0.000003,  9.965542,  3.329613 )
  WF centre  269  ( -3.446010,  9.941659, -0.089317 )
  WF centre  270  ( -3.446042,  9.942149, -0.124190 )
  WF centre  271  ( -3.446065,  9.925368,  0.051864 )
  WF centre  272  ( -3.446021,  9.934858,  0.024801 )
  WF centre  273  ( -3.446051,  9.976142,  0.051505 )
  WF centre  274  ( -3.446040,  9.965531,  0.024695 )
  WF centre  275  ( -3.446010,  9.941661,  3.443631 )
  WF centre  276  ( -3.446042,  9.942146,  3.478496 )
  WF centre  277  ( -3.446066,  9.925376,  3.302439 )
  WF centre  278  ( -3.446021,  9.934851,  3.329511 )
  WF centre  279  ( -3.446051,  9.976132,  3.302798 )
  WF centre  280  ( -3.446040,  9.965542,  3.329618 )
  WF centre  281  (  6.891972,  3.973047, -0.089284 )
  WF centre  282  (  6.892086,  3.973430, -0.124198 )
  WF centre  283  (  6.892103,  3.956698,  0.051644 )
  WF centre  284  (  6.892113,  3.966141,  0.024797 )
  WF centre  285  (  6.892096,  4.007353,  0.051594 )
  WF centre  286  (  6.892086,  3.996804,  0.024692 )
  WF centre  287  (  6.891972,  3.973049,  3.443599 )
  WF centre  288  (  6.892086,  3.973427,  3.478504 )
  WF centre  289  (  6.892103,  3.956706,  3.302659 )
  WF centre  290  (  6.892113,  3.966134,  3.329515 )
  WF centre  291  (  6.892096,  4.007343,  3.302709 )
  WF centre  292  (  6.892086,  3.996814,  3.329621 )
  WF centre  293  (  5.168992,  6.957311, -0.089273 )
  WF centre  294  (  5.169060,  6.957789, -0.124195 )
  WF centre  295  (  5.169065,  6.941051,  0.051732 )
  WF centre  296  (  5.169078,  6.950498,  0.024801 )
  WF centre  297  (  5.169076,  6.991746,  0.051474 )
  WF centre  298  (  5.169063,  6.981176,  0.024694 )
  WF centre  299  (  5.168992,  6.957313,  3.443587 )
  WF centre  300  (  5.169060,  6.957786,  3.478501 )
  WF centre  301  (  5.169066,  6.941059,  3.302571 )
  WF centre  302  (  5.169077,  6.950491,  3.329512 )
  WF centre  303  (  5.169075,  6.991736,  3.302829 )
  WF centre  304  (  5.169063,  6.981186,  3.329619 )
  WF centre  305  (  1.723119,  6.957460, -0.089296 )
  WF centre  306  (  1.723021,  6.957790, -0.124191 )
  WF centre  307  (  1.722976,  6.941019,  0.051780 )
  WF centre  308  (  1.723036,  6.950497,  0.024805 )
  WF centre  309  (  1.723037,  6.991731,  0.051508 )
  WF centre  310  (  1.723027,  6.981174,  0.024699 )
  WF centre  311  (  1.723119,  6.957463,  3.443611 )
  WF centre  312  (  1.723021,  6.957787,  3.478497 )
  WF centre  313  (  1.722977,  6.941027,  3.302523 )
  WF centre  314  (  1.723036,  6.950490,  3.329507 )
  WF centre  315  (  1.723037,  6.991721,  3.302795 )
  WF centre  316  (  1.723027,  6.981184,  3.329614 )
  WF centre  317  (  3.446184,  3.973144, -0.089299 )
  WF centre  318  (  3.446042,  3.973434, -0.124196 )
  WF centre  319  (  3.445985,  3.956677,  0.051698 )
  WF centre  320  (  3.446053,  3.966145,  0.024801 )
  WF centre  321  (  3.446054,  4.007348,  0.051612 )
  WF centre  322  (  3.446046,  3.996809,  0.024695 )
  WF centre  323  (  3.446184,  3.973146,  3.443614 )
  WF centre  324  (  3.446042,  3.973431,  3.478502 )
  WF centre  325  (  3.445985,  3.956685,  3.302606 )
  WF centre  326  (  3.446053,  3.966137,  3.329512 )
  WF centre  327  (  3.446054,  4.007338,  3.302691 )
  WF centre  328  (  3.446046,  3.996820,  3.329618 )
  WF centre  329  (  0.000033,  3.973121, -0.089322 )
  WF centre  330  ( -0.000002,  3.973431, -0.124195 )
  WF centre  331  ( -0.000026,  3.956662,  0.051856 )
  WF centre  332  (  0.000013,  3.966141,  0.024799 )
  WF centre  333  ( -0.000003,  4.007357,  0.051595 )
  WF centre  334  (  0.000005,  3.996806,  0.024693 )
  WF centre  335  (  0.000033,  3.973123,  3.443636 )
  WF centre  336  ( -0.000002,  3.973427,  3.478501 )
  WF centre  337  ( -0.000026,  3.956670,  3.302447 )
  WF centre  338  (  0.000013,  3.966134,  3.329514 )
  WF centre  339  ( -0.000003,  4.007347,  3.302708 )
  WF centre  340  (  0.000005,  3.996816,  3.329620 )
  WF centre  341  ( -1.723035,  6.957445, -0.089309 )
  WF centre  342  ( -1.723023,  6.957789, -0.124187 )
  WF centre  343  ( -1.723033,  6.941010,  0.051882 )
  WF centre  344  ( -1.722996,  6.950496,  0.024806 )
  WF centre  345  ( -1.723029,  6.991737,  0.051498 )
  WF centre  346  ( -1.723019,  6.981166,  0.024700 )
  WF centre  347  ( -1.723035,  6.957447,  3.443623 )
  WF centre  348  ( -1.723023,  6.957786,  3.478493 )
  WF centre  349  ( -1.723033,  6.941018,  3.302421 )
  WF centre  350  ( -1.722996,  6.950488,  3.329507 )
  WF centre  351  ( -1.723029,  6.991727,  3.302805 )
  WF centre  352  ( -1.723019,  6.981177,  3.329613 )
 ------------------------------------------------------------------------------
 

 Wannier centres written to file 1Fe_initialconf_centres.xyz
  
  Omega Invariant:   1-s^2 =   726.191694986 (Ang^2)
                   -2log s =   750.805139119 (Ang^2)
                    acos^2 =   742.362539924 (Ang^2)
 Time for wannierise          216.887 (sec)

 Writing checkpoint file 1Fe_initialconf.chk... done

 *---------------------------------------------------------------------------*
 |                               PLOTTING                                    |
 *---------------------------------------------------------------------------*
 
    9 lattice points in Wigner-Seitz supercell:

      vector  -1  -2   0   degeneracy:  1
      vector  -1  -1   0   degeneracy:  1
      vector  -1   0   0   degeneracy:  1
      vector   0  -1   0   degeneracy:  1
      vector   0   0   0   degeneracy:  1
      vector   0   1   0   degeneracy:  1
      vector   1   0   0   degeneracy:  1
      vector   1   1   0   degeneracy:  1
      vector   1   2   0   degeneracy:  1
  tot =        9.000
  mp_grid product =            9
 
 Calculating interpolated band-structure
 
 Time to calculate interpolated band structure      46.576 (sec)
 
 Time for plotting             52.924 (sec)
 Total Execution Time         664.194 (sec)

 *===========================================================================*
 |                             TIMING INFORMATION                            |
 *===========================================================================*
 |    Tag                                                Ncalls      Time (s)|
 |---------------------------------------------------------------------------|
 |kmesh: get                                        :         1         0.017|
 |overlap: allocate                                 :         1         0.014|
 |overlap: read                                     :         1        63.299|
 |dis: main                                         :         1       330.912|
 |wann: main                                        :         1       216.887|
 |plot: main                                        :         1        52.924|
 *---------------------------------------------------------------------------*
 
 All done: wannier90 exiting
