
     Program PWSCF v.6.8 starts on 11Jul2023 at 16:31:13 

     This program is part of the open-source Quantum ESPRESSO suite
     for quantum simulation of materials; please cite
         "P. Giannozzi et al., J. Phys.:Condens. Matter 21 395502 (2009);
         "P. Giannozzi et al., J. Phys.:Condens. Matter 29 465901 (2017);
         "P. Giannozzi et al., J. Chem. Phys. 152 154105 (2020);
          URL http://www.quantum-espresso.org", 
     in publications or presentations arising from this work. More details at
     http://www.quantum-espresso.org/quote

     Parallel version (MPI & OpenMP), running on      80 processor cores
     Number of MPI processes:                80
     Threads/MPI process:                     1

     MPI processes distributed on     2 nodes
     R & G space division:  proc/nbgrp/npool/nimage =      80
     182737 MiB available memory on the printing compute node when the environment starts
 
     Reading input from 1Fe_centreconf.scf.in

     Current dimensions of program PWSCF are:
     Max number of different atomic species (ntypx) = 10
     Max number of k-points (npk) =  40000
     Max angular momentum in pseudopotentials (lmaxx) =  4
     file Cr.pbe-spn-kjpaw_psl.1.0.0.UPF: wavefunction(s)  3S 3P 3D renormalized
     file Nb.pbe-spn-kjpaw_psl.1.0.0.UPF: wavefunction(s)  4S 4P 4D renormalized
     file Se.pbe-n-kjpaw_psl.1.0.0.UPF: wavefunction(s)  4S renormalized

     Subspace diagonalization in iterative solution of the eigenvalue problem:
     one sub-group per band group will be used
     scalapack distributed-memory algorithm (size of sub-group:  8*  8 procs)

 
     Parallelization info
     --------------------
     sticks:   dense  smooth     PW     G-vecs:    dense   smooth      PW
     Min         467     174     45               125329    28766    3799
     Max         468     175     46               125336    28783    3810
     Sum       37435   13999   3643             10026649  2302489  304271
 
     Using Slab Decomposition
 


     bravais-lattice index     =            4
     lattice parameter (alat)  =      26.0483  a.u.
     unit-cell volume          =   26240.8884 (a.u.)^3
     number of atoms/cell      =           49
     number of atomic types    =            3
     number of electrons       =       414.00
     number of Kohn-Sham states=          248
     kinetic-energy cutoff     =      75.0000  Ry
     charge density cutoff     =     800.0000  Ry
     scf convergence threshold =      1.0E-07
     mixing beta               =       0.7000
     number of iterations used =            8  local-TF  mixing
     Exchange-correlation= SLA  PW   PBX  PBC
                           (   1   4   3   4   0   0   0)

     celldm(1)=  26.048308  celldm(2)=   0.000000  celldm(3)=   1.714389
     celldm(4)=   0.000000  celldm(5)=   0.000000  celldm(6)=   0.000000

     crystal axes: (cart. coord. in units of alat)
               a(1) = (   1.000000   0.000000   0.000000 )  
               a(2) = (  -0.500000   0.866025   0.000000 )  
               a(3) = (   0.000000   0.000000   1.714389 )  

     reciprocal axes: (cart. coord. in units 2 pi/alat)
               b(1) = (  1.000000  0.577350  0.000000 )  
               b(2) = (  0.000000  1.154701  0.000000 )  
               b(3) = (  0.000000  0.000000  0.583298 )  


     PseudoPot. # 1 for Cr read from file:
     /ptmp/jojaibal/YSR_Project/Cr.pbe-spn-kjpaw_psl.1.0.0.UPF
     MD5 check sum: 7e2868eaf0e426e74b90ebb04087dc43
     Pseudo is Projector augmented-wave + core cor, Zval = 14.0
     Generated using &quot;atomic&quot; code by A. Dal Corso  v.6.3
     Shape of augmentation charge: PSQ
     Using radial grid of 1183 points,  6 beta functions with: 
                l(1) =   0
                l(2) =   0
                l(3) =   1
                l(4) =   1
                l(5) =   2
                l(6) =   2
     Q(r) pseudized with 0 coefficients 


     PseudoPot. # 2 for Nb read from file:
     /ptmp/jojaibal/YSR_Project/Nb.pbe-spn-kjpaw_psl.1.0.0.UPF
     MD5 check sum: dcedcbb129af9a7271e4748e5febedb1
     Pseudo is Projector augmented-wave + core cor, Zval = 13.0
     Generated using &quot;atomic&quot; code by A. Dal Corso  v.6.2.2
     Shape of augmentation charge: PSQ
     Using radial grid of 1227 points,  6 beta functions with: 
                l(1) =   0
                l(2) =   0
                l(3) =   1
                l(4) =   1
                l(5) =   2
                l(6) =   2
     Q(r) pseudized with 0 coefficients 


     PseudoPot. # 3 for Se read from file:
     /ptmp/jojaibal/YSR_Project/Se.pbe-n-kjpaw_psl.1.0.0.UPF
     MD5 check sum: 12232cb78b362a7b0fca8da9cb95fd5e
     Pseudo is Projector augmented-wave + core cor, Zval =  6.0
     Generated using &quot;atomic&quot; code by A. Dal Corso  v.6.3
     Shape of augmentation charge: PSQ
     Using radial grid of 1211 points,  4 beta functions with: 
                l(1) =   0
                l(2) =   0
                l(3) =   1
                l(4) =   1
     Q(r) pseudized with 0 coefficients 


     atomic species   valence    mass     pseudopotential
        Cr            14.00    51.99610     Cr( 1.00)
        Nb            13.00    92.90638     Nb( 1.00)
        Se             6.00    78.96000     Se( 1.00)

     Starting magnetic structure 
     atomic species   magnetization
        Cr           0.500
        Nb           0.000
        Se           0.000


     Simplified LDA+U calculation (l_max = 2) with parameters (eV):
     atomic species    L          U    alpha       J0     beta
        Cr             2     4.0000   0.0000   0.0000   0.0000



      6 Sym. Ops. (no inversion) found



   Cartesian axes

     site n.     atom                  positions (alat units)
         1           Cr  tau(   1) = (  -0.0000000   0.5773503   0.2860517  )
         2           Nb  tau(   2) = (   0.0000000   0.0000000   0.1229160  )
         3           Se  tau(   3) = (   0.1254089   0.0724049   0.0010778  )
         4           Se  tau(   4) = (   0.1251714   0.0722677   0.2449858  )
         5           Nb  tau(   5) = (   0.2517673   0.0002084   0.1234554  )
         6           Se  tau(   6) = (   0.3747267   0.0705210  -0.0026703  )
         7           Se  tau(   7) = (   0.3744687   0.0773147   0.2432424  )
         8           Nb  tau(   8) = (   0.5000000   0.0039564   0.1214542  )
         9           Se  tau(   9) = (   0.6252733   0.0705210  -0.0026703  )
        10           Se  tau(  10) = (   0.6255313   0.0773147   0.2432424  )
        11           Nb  tau(  11) = (   0.7482327   0.0002084   0.1234554  )
        12           Se  tau(  12) = (   0.8745911   0.0724049   0.0010778  )
        13           Se  tau(  13) = (   0.8748286   0.0722677   0.2449858  )
        14           Nb  tau(  14) = (   0.6227459   0.2178078   0.1170668  )
        15           Se  tau(  15) = (   0.7515637   0.2892623  -0.0026703  )
        16           Se  tau(  16) = (   0.7458091   0.2856421   0.2432424  )
        17           Nb  tau(  17) = (   0.5000000   0.4304099   0.1170668  )
        18           Se  tau(  18) = (   0.6262904   0.5062421  -0.0026703  )
        19           Se  tau(  19) = (   0.6202779   0.5030686   0.2432424  )
        20           Nb  tau(  20) = (   0.3742968   0.6478843   0.1234554  )
        21           Se  tau(  21) = (   0.5000000   0.7212157   0.0010778  )
        22           Se  tau(  22) = (   0.5000000   0.7214900   0.2449858  )
        23           Nb  tau(  23) = (   0.1252411   0.6496583   0.1347264  )
        24           Se  tau(  24) = (   0.2466517   0.7197547   0.0051095  )
        25           Se  tau(  25) = (   0.2537864   0.7238739   0.2493858  )
        26           Nb  tau(  26) = (  -0.1252412   0.6496583   0.1347264  )
        27           Se  tau(  27) = (   0.0000000   0.7186156   0.0095953  )
        28           Se  tau(  28) = (   0.0000000   0.7417567   0.2570242  )
        29           Nb  tau(  29) = (  -0.3742968   0.6478843   0.1234554  )
        30           Se  tau(  30) = (  -0.2466517   0.7197547   0.0051095  )
        31           Se  tau(  31) = (  -0.2537864   0.7238739   0.2493858  )
        32           Nb  tau(  32) = (   0.3772541   0.2178078   0.1170668  )
        33           Se  tau(  33) = (   0.5000000   0.2886751  -0.0074067  )
        34           Se  tau(  34) = (   0.5000000   0.2886751   0.2418116  )
        35           Nb  tau(  35) = (   0.2534264   0.4310345   0.1214542  )
        36           Se  tau(  36) = (   0.3737096   0.5062421  -0.0026703  )
        37           Se  tau(  37) = (   0.3797221   0.5030686   0.2432424  )
        38           Nb  tau(  38) = (  -0.0000000   0.4327342   0.1347264  )
        39           Se  tau(  39) = (   0.1223393   0.5067176   0.0095953  )
        40           Se  tau(  40) = (   0.1423801   0.4951471   0.2570242  )
        41           Nb  tau(  41) = (   0.1260641   0.2179327   0.1234554  )
        42           Se  tau(  42) = (   0.2484363   0.2892623  -0.0026703  )
        43           Se  tau(  43) = (   0.2541909   0.2856421   0.2432424  )
        44           Nb  tau(  44) = (  -0.1260641   0.2179327   0.1234554  )
        45           Se  tau(  45) = (   0.0000000   0.2925415   0.0051095  )
        46           Se  tau(  46) = (   0.0000000   0.2843030   0.2493858  )
        47           Nb  tau(  47) = (  -0.2534264   0.4310345   0.1214542  )
        48           Se  tau(  48) = (  -0.1223393   0.5067176   0.0095953  )
        49           Se  tau(  49) = (  -0.1423801   0.4951471   0.2570242  )

     number of k points=     7  Methfessel-Paxton smearing, width (Ry)=  0.0200
                       cart. coord. in units 2pi/alat
        k(    1) = (   0.0000000   0.0000000   0.0000000), wk =   0.0277778
        k(    2) = (   0.0000000   0.1924501   0.0000000), wk =   0.1666667
        k(    3) = (   0.0000000   0.3849002   0.0000000), wk =   0.1666667
        k(    4) = (   0.0000000  -0.5773503   0.0000000), wk =   0.0833333
        k(    5) = (   0.1666667   0.2886751   0.0000000), wk =   0.1666667
        k(    6) = (   0.1666667   0.4811252   0.0000000), wk =   0.3333333
        k(    7) = (   0.3333333   0.5773503   0.0000000), wk =   0.0555556

     Dense  grid: 10026649 G-vectors     FFT dimensions: ( 240, 240, 405)

     Smooth grid:  2302489 G-vectors     FFT dimensions: ( 144, 144, 250)

     Estimated max dynamical RAM per process >     798.95 MB

     Estimated total dynamical RAM >      62.42 GB
     Generating pointlists ...
     new r_m :   0.0689 (alat units)  1.7939 (a.u.) for type    1
     new r_m :   0.0770 (alat units)  2.0050 (a.u.) for type    2
     new r_m :   0.0689 (alat units)  1.7939 (a.u.) for type    3

     Initial potential from superposition of free atoms

     starting charge  413.97586, renormalised to  414.00000

     negative rho (up, down):  1.197E-03 9.155E-04
     Number of +U iterations with fixed ns =  0
     Starting occupations:
 --- enter write_ns ---
 LDA+U parameters:
U( 1)     =  4.00000000
atom    1   Tr[ns(na)] (up, down, total) =   5.00000  0.00000  5.00000
   spin  1
    eigenvalues: 
  1.000  1.000  1.000  1.000  1.000
    eigenvectors:
  1.000  0.000  0.000  0.000  0.000
  0.000  1.000  0.000  0.000  0.000
  0.000  0.000  1.000  0.000  0.000
  0.000  0.000  0.000  1.000  0.000
  0.000  0.000  0.000  0.000  1.000
    occupations:
  1.000  0.000  0.000  0.000  0.000
  0.000  1.000  0.000  0.000  0.000
  0.000  0.000  1.000  0.000  0.000
  0.000  0.000  0.000  1.000  0.000
  0.000  0.000  0.000  0.000  1.000
   spin  2
    eigenvalues: 
  0.000  0.000  0.000  0.000  0.000
    eigenvectors:
  1.000  0.000  0.000  0.000  0.000
  0.000  1.000  0.000  0.000  0.000
  0.000  0.000  1.000  0.000  0.000
  0.000  0.000  0.000  1.000  0.000
  0.000  0.000  0.000  0.000  1.000
    occupations:
  0.000  0.000  0.000  0.000  0.000
  0.000  0.000  0.000  0.000  0.000
  0.000  0.000  0.000  0.000  0.000
  0.000  0.000  0.000  0.000  0.000
  0.000  0.000  0.000  0.000  0.000
atomic mag. moment =   5.00000
N of occupied +U levels =    5.000000
 --- exit write_ns ---
 Atomic wfc used for LDA+U Projector are NOT orthogonalized
     Starting wfcs are  346 randomized atomic wfcs
     Checking if some PAW data can be deallocated... 

     total cpu time spent up to now is       70.3 secs

     Self-consistent Calculation

     iteration #  1     ecut=    75.00 Ry     beta= 0.70
     Davidson diagonalization with overlap
     ethr =  1.00E-02,  avg # of iterations =  2.0
 --- enter write_ns ---
 LDA+U parameters:
U( 1)     =  4.00000000
atom    1   Tr[ns(na)] (up, down, total) =   4.91258  0.57952  5.49209
   spin  1
    eigenvalues: 
  0.975  0.975  0.979  0.992  0.992
    eigenvectors:
  0.000  0.000  1.000  0.000  0.000
  0.027  0.007  0.000  0.133  0.832
  0.007  0.027  0.000  0.832  0.133
  0.207  0.758  0.000  0.030  0.005
  0.758  0.207  0.000  0.005  0.030
    occupations:
  0.979 -0.000 -0.000 -0.000 -0.000
 -0.000  0.991 -0.000  0.000 -0.003
 -0.000 -0.000  0.991 -0.003 -0.000
 -0.000  0.000 -0.003  0.975  0.000
 -0.000 -0.003 -0.000  0.000  0.975
   spin  2
    eigenvalues: 
  0.085  0.085  0.104  0.153  0.153
    eigenvectors:
  0.000  0.000  1.000  0.000  0.000
  0.100  0.897  0.000  0.002  0.001
  0.897  0.100  0.000  0.001  0.002
  0.003  0.000  0.000  0.192  0.806
  0.000  0.003  0.000  0.806  0.192
    occupations:
  0.104 -0.000 -0.000 -0.000 -0.000
 -0.000  0.085 -0.000  0.000  0.004
 -0.000 -0.000  0.085  0.004 -0.000
 -0.000  0.000  0.004  0.152  0.000
 -0.000  0.004 -0.000  0.000  0.152
atomic mag. moment =   4.33306
N of occupied +U levels =    5.492094
 --- exit write_ns ---

     Threshold (ethr) on eigenvalues was too large:
     Diagonalizing with lowered threshold

     Davidson diagonalization with overlap
     ethr =  4.67E-04,  avg # of iterations =  2.0

     negative rho (up, down):  1.075E-06 8.633E-07

     total cpu time spent up to now is      210.8 secs

     total energy              =  -11657.69927263 Ry
     estimated scf accuracy    <       2.23691419 Ry

     total magnetization       =     4.26 Bohr mag/cell
     absolute magnetization    =     5.34 Bohr mag/cell

     iteration #  2     ecut=    75.00 Ry     beta= 0.70
     Davidson diagonalization with overlap
     ethr =  5.40E-04,  avg # of iterations =  1.5

     negative rho (up, down):  3.317E-07 1.068E-06

     total cpu time spent up to now is      280.8 secs

     total energy              =  -11657.67397302 Ry
     estimated scf accuracy    <       0.94224667 Ry

     total magnetization       =     2.83 Bohr mag/cell
     absolute magnetization    =     5.69 Bohr mag/cell

     iteration #  3     ecut=    75.00 Ry     beta= 0.70
     Davidson diagonalization with overlap
     ethr =  2.28E-04,  avg # of iterations =  1.9

     negative rho (up, down):  3.966E-07 1.513E-06

     total cpu time spent up to now is      352.3 secs

     total energy              =  -11657.66098098 Ry
     estimated scf accuracy    <       0.29096495 Ry

     total magnetization       =     2.41 Bohr mag/cell
     absolute magnetization    =     6.16 Bohr mag/cell

     iteration #  4     ecut=    75.00 Ry     beta= 0.70
     Davidson diagonalization with overlap
     ethr =  7.03E-05,  avg # of iterations =  4.9

     negative rho (up, down):  5.107E-07 1.104E-06

     total cpu time spent up to now is      434.3 secs

     total energy              =  -11657.67951353 Ry
     estimated scf accuracy    <       0.10192392 Ry

     total magnetization       =     2.11 Bohr mag/cell
     absolute magnetization    =     6.69 Bohr mag/cell

     iteration #  5     ecut=    75.00 Ry     beta= 0.70
     Davidson diagonalization with overlap
     ethr =  2.46E-05,  avg # of iterations =  3.1

     negative rho (up, down):  4.233E-07 4.167E-07

     total cpu time spent up to now is      505.6 secs

     total energy              =  -11657.67320949 Ry
     estimated scf accuracy    <       0.04409643 Ry

     total magnetization       =     1.92 Bohr mag/cell
     absolute magnetization    =     6.92 Bohr mag/cell

     iteration #  6     ecut=    75.00 Ry     beta= 0.70
     Davidson diagonalization with overlap
     c_bands:  2 eigenvalues not converged
     c_bands:  2 eigenvalues not converged
     c_bands:  1 eigenvalues not converged
     ethr =  1.07E-05,  avg # of iterations = 13.9

     negative rho (up, down):  6.287E-07 2.826E-06

     total cpu time spent up to now is      604.0 secs

     total energy              =  -11657.67250920 Ry
     estimated scf accuracy    <       0.02621053 Ry

     total magnetization       =     1.58 Bohr mag/cell
     absolute magnetization    =     7.30 Bohr mag/cell

     iteration #  7     ecut=    75.00 Ry     beta= 0.70
     Davidson diagonalization with overlap
     c_bands:  4 eigenvalues not converged
     c_bands:  1 eigenvalues not converged
     c_bands:  1 eigenvalues not converged
     c_bands:  1 eigenvalues not converged
     ethr =  6.33E-06,  avg # of iterations =  8.5

     negative rho (up, down):  8.572E-05 7.384E-04

     total cpu time spent up to now is      680.1 secs

     total energy              =  -11657.67074723 Ry
     estimated scf accuracy    <       0.01514258 Ry

     total magnetization       =     1.48 Bohr mag/cell
     absolute magnetization    =     7.58 Bohr mag/cell

     iteration #  8     ecut=    75.00 Ry     beta= 0.70
     Davidson diagonalization with overlap
     c_bands:  1 eigenvalues not converged
     c_bands:  1 eigenvalues not converged
     ethr =  3.66E-06,  avg # of iterations = 10.1

     negative rho (up, down):  1.760E-02 1.828E-02

     total cpu time spent up to now is      765.7 secs

     total energy              =  -11657.67019806 Ry
     estimated scf accuracy    <       0.00940308 Ry

     total magnetization       =     1.35 Bohr mag/cell
     absolute magnetization    =     7.96 Bohr mag/cell

     iteration #  9     ecut=    75.00 Ry     beta= 0.70
     Davidson diagonalization with overlap
     ethr =  2.27E-06,  avg # of iterations =  5.0

     negative rho (up, down):  2.518E-02 2.559E-02

     total cpu time spent up to now is      842.8 secs

     total energy              =  -11657.67115662 Ry
     estimated scf accuracy    <       0.00525660 Ry

     total magnetization       =     1.22 Bohr mag/cell
     absolute magnetization    =     8.16 Bohr mag/cell

     iteration # 10     ecut=    75.00 Ry     beta= 0.70
     Davidson diagonalization with overlap
     ethr =  1.27E-06,  avg # of iterations =  1.6

     negative rho (up, down):  1.851E-02 1.867E-02

     total cpu time spent up to now is      908.7 secs

     total energy              =  -11657.67187517 Ry
     estimated scf accuracy    <       0.00138544 Ry

     total magnetization       =     1.32 Bohr mag/cell
     absolute magnetization    =     8.27 Bohr mag/cell

     iteration # 11     ecut=    75.00 Ry     beta= 0.70
     Davidson diagonalization with overlap
     ethr =  3.35E-07,  avg # of iterations =  3.5

     negative rho (up, down):  8.520E-03 8.593E-03

     total cpu time spent up to now is      983.7 secs

     total energy              =  -11657.67208976 Ry
     estimated scf accuracy    <       0.00055888 Ry

     total magnetization       =     1.43 Bohr mag/cell
     absolute magnetization    =     8.40 Bohr mag/cell

     iteration # 12     ecut=    75.00 Ry     beta= 0.70
     Davidson diagonalization with overlap
     ethr =  1.35E-07,  avg # of iterations =  3.3

     negative rho (up, down):  2.662E-03 2.690E-03

     total cpu time spent up to now is     1059.4 secs

     total energy              =  -11657.67220712 Ry
     estimated scf accuracy    <       0.00004643 Ry

     total magnetization       =     1.46 Bohr mag/cell
     absolute magnetization    =     8.45 Bohr mag/cell

     iteration # 13     ecut=    75.00 Ry     beta= 0.70
     Davidson diagonalization with overlap
     ethr =  1.12E-08,  avg # of iterations =  7.2

     negative rho (up, down):  1.392E-03 1.413E-03

     total cpu time spent up to now is     1157.7 secs

     total energy              =  -11657.67223814 Ry
     estimated scf accuracy    <       0.00001308 Ry

     total magnetization       =     1.51 Bohr mag/cell
     absolute magnetization    =     8.47 Bohr mag/cell

     iteration # 14     ecut=    75.00 Ry     beta= 0.70
     Davidson diagonalization with overlap
     ethr =  3.16E-09,  avg # of iterations =  2.5

     negative rho (up, down):  8.317E-04 8.515E-04

     total cpu time spent up to now is     1233.9 secs

     total energy              =  -11657.67225159 Ry
     estimated scf accuracy    <       0.00000650 Ry

     total magnetization       =     1.54 Bohr mag/cell
     absolute magnetization    =     8.50 Bohr mag/cell

     iteration # 15     ecut=    75.00 Ry     beta= 0.70
     Davidson diagonalization with overlap
     ethr =  1.57E-09,  avg # of iterations =  4.0

     negative rho (up, down):  7.746E-04 7.922E-04

     total cpu time spent up to now is     1320.1 secs

     total energy              =  -11657.67226583 Ry
     estimated scf accuracy    <       0.00000321 Ry

     total magnetization       =     1.58 Bohr mag/cell
     absolute magnetization    =     8.54 Bohr mag/cell

     iteration # 16     ecut=    75.00 Ry     beta= 0.70
     Davidson diagonalization with overlap
     ethr =  7.76E-10,  avg # of iterations =  3.4

     negative rho (up, down):  5.954E-04 6.154E-04

     total cpu time spent up to now is     1405.5 secs

     total energy              =  -11657.67227644 Ry
     estimated scf accuracy    <       0.00000183 Ry

     total magnetization       =     1.60 Bohr mag/cell
     absolute magnetization    =     8.56 Bohr mag/cell

     iteration # 17     ecut=    75.00 Ry     beta= 0.70
     Davidson diagonalization with overlap
     ethr =  4.43E-10,  avg # of iterations =  5.7

     negative rho (up, down):  6.034E-04 6.241E-04

     total cpu time spent up to now is     1522.5 secs

     total energy              =  -11657.67229716 Ry
     estimated scf accuracy    <       0.00000157 Ry

     total magnetization       =     1.65 Bohr mag/cell
     absolute magnetization    =     8.63 Bohr mag/cell

     iteration # 18     ecut=    75.00 Ry     beta= 0.70
     Davidson diagonalization with overlap
     ethr =  3.79E-10,  avg # of iterations =  2.9

     negative rho (up, down):  6.848E-04 7.020E-04

     total cpu time spent up to now is     1604.5 secs

     total energy              =  -11657.67228584 Ry
     estimated scf accuracy    <       0.00000105 Ry

     total magnetization       =     1.67 Bohr mag/cell
     absolute magnetization    =     8.65 Bohr mag/cell

     iteration # 19     ecut=    75.00 Ry     beta= 0.70
     Davidson diagonalization with overlap
     ethr =  2.53E-10,  avg # of iterations =  6.1

     negative rho (up, down):  7.369E-04 7.531E-04

     total cpu time spent up to now is     1738.0 secs

     total energy              =  -11657.67232265 Ry
     estimated scf accuracy    <       0.00000096 Ry

     total magnetization       =     1.74 Bohr mag/cell
     absolute magnetization    =     8.75 Bohr mag/cell

     iteration # 20     ecut=    75.00 Ry     beta= 0.70
     Davidson diagonalization with overlap
     ethr =  2.33E-10,  avg # of iterations =  4.1

     negative rho (up, down):  8.047E-04 8.204E-04

     total cpu time spent up to now is     1827.1 secs

     total energy              =  -11657.67232246 Ry
     estimated scf accuracy    <       0.00000063 Ry

     total magnetization       =     1.76 Bohr mag/cell
     absolute magnetization    =     8.78 Bohr mag/cell

     iteration # 21     ecut=    75.00 Ry     beta= 0.70
     Davidson diagonalization with overlap
     ethr =  1.51E-10,  avg # of iterations =  5.8

     negative rho (up, down):  8.165E-04 8.325E-04

     total cpu time spent up to now is     1956.4 secs

     total energy              =  -11657.67232550 Ry
     estimated scf accuracy    <       0.00000042 Ry

     total magnetization       =     1.81 Bohr mag/cell
     absolute magnetization    =     8.85 Bohr mag/cell

     iteration # 22     ecut=    75.00 Ry     beta= 0.70
     Davidson diagonalization with overlap
     ethr =  1.02E-10,  avg # of iterations =  7.0

     negative rho (up, down):  7.687E-04 7.862E-04

     total cpu time spent up to now is     2102.7 secs

     total energy              =  -11657.67228984 Ry
     estimated scf accuracy    <       0.00000029 Ry

     total magnetization       =     1.86 Bohr mag/cell
     absolute magnetization    =     8.93 Bohr mag/cell

     iteration # 23     ecut=    75.00 Ry     beta= 0.70
     Davidson diagonalization with overlap
     ethr =  6.91E-11,  avg # of iterations =  9.3

     negative rho (up, down):  6.087E-04 6.254E-04
 
     Magnetic moment per site  (integrated on atomic sphere of radius R)
     atom   1 (R=0.069)  charge= 11.8795  magn=  3.3845
     atom   2 (R=0.077)  charge= 10.0179  magn=  0.2377
     atom   3 (R=0.069)  charge=  3.1790  magn= -0.0011
     atom   4 (R=0.069)  charge=  3.1825  magn= -0.0014
     atom   5 (R=0.077)  charge= 10.0202  magn=  0.0427
     atom   6 (R=0.069)  charge=  3.1803  magn= -0.0048
     atom   7 (R=0.069)  charge=  3.1874  magn=  0.0003
     atom   8 (R=0.077)  charge= 10.0363  magn= -0.2016
     atom   9 (R=0.069)  charge=  3.1803  magn= -0.0048
     atom  10 (R=0.069)  charge=  3.1874  magn=  0.0003
     atom  11 (R=0.077)  charge= 10.0202  magn=  0.0427
     atom  12 (R=0.069)  charge=  3.1790  magn= -0.0011
     atom  13 (R=0.069)  charge=  3.1825  magn= -0.0014
     atom  14 (R=0.077)  charge= 10.0281  magn= -0.0736
     atom  15 (R=0.069)  charge=  3.1803  magn= -0.0048
     atom  16 (R=0.069)  charge=  3.1874  magn=  0.0003
     atom  17 (R=0.077)  charge= 10.0281  magn= -0.0736
     atom  18 (R=0.069)  charge=  3.1803  magn= -0.0048
     atom  19 (R=0.069)  charge=  3.1874  magn=  0.0003
     atom  20 (R=0.077)  charge= 10.0202  magn=  0.0427
     atom  21 (R=0.069)  charge=  3.1790  magn= -0.0011
     atom  22 (R=0.069)  charge=  3.1825  magn= -0.0014
     atom  23 (R=0.077)  charge= 10.0174  magn= -0.2736
     atom  24 (R=0.069)  charge=  3.1796  magn=  0.0014
     atom  25 (R=0.069)  charge=  3.1854  magn= -0.0010
     atom  26 (R=0.077)  charge= 10.0174  magn= -0.2736
     atom  27 (R=0.069)  charge=  3.1815  magn=  0.0044
     atom  28 (R=0.069)  charge=  3.2211  magn= -0.0321
     atom  29 (R=0.077)  charge= 10.0202  magn=  0.0427
     atom  30 (R=0.069)  charge=  3.1796  magn=  0.0014
     atom  31 (R=0.069)  charge=  3.1854  magn= -0.0010
     atom  32 (R=0.077)  charge= 10.0281  magn= -0.0736
     atom  33 (R=0.069)  charge=  3.1838  magn= -0.0036
     atom  34 (R=0.069)  charge=  3.1831  magn= -0.0043
     atom  35 (R=0.077)  charge= 10.0363  magn= -0.2016
     atom  36 (R=0.069)  charge=  3.1803  magn= -0.0048
     atom  37 (R=0.069)  charge=  3.1874  magn=  0.0003
     atom  38 (R=0.077)  charge= 10.0174  magn= -0.2736
     atom  39 (R=0.069)  charge=  3.1815  magn=  0.0044
     atom  40 (R=0.069)  charge=  3.2211  magn= -0.0321
     atom  41 (R=0.077)  charge= 10.0202  magn=  0.0427
     atom  42 (R=0.069)  charge=  3.1803  magn= -0.0048
     atom  43 (R=0.069)  charge=  3.1874  magn=  0.0003
     atom  44 (R=0.077)  charge= 10.0202  magn=  0.0427
     atom  45 (R=0.069)  charge=  3.1796  magn=  0.0014
     atom  46 (R=0.069)  charge=  3.1854  magn= -0.0010
     atom  47 (R=0.077)  charge= 10.0363  magn= -0.2016
     atom  48 (R=0.069)  charge=  3.1815  magn=  0.0044
     atom  49 (R=0.069)  charge=  3.2211  magn= -0.0321

     total cpu time spent up to now is     2259.9 secs

     End of self-consistent calculation
 --- enter write_ns ---
 LDA+U parameters:
U( 1)     =  4.00000000
atom    1   Tr[ns(na)] (up, down, total) =   4.60249  0.66588  5.26838
   spin  1
    eigenvalues: 
  0.879  0.879  0.898  0.974  0.974
    eigenvectors:
  0.000  0.000  1.000  0.000  0.000
  0.033  0.009  0.000  0.140  0.818
  0.009  0.033  0.000  0.818  0.140
  0.208  0.750  0.000  0.036  0.006
  0.750  0.208  0.000  0.006  0.036
    occupations:
  0.898 -0.000 -0.000 -0.000 -0.000
 -0.000  0.970 -0.000  0.000 -0.019
 -0.000 -0.000  0.970 -0.019 -0.000
 -0.000  0.000 -0.019  0.883  0.000
 -0.000 -0.019 -0.000  0.000  0.883
   spin  2
    eigenvalues: 
  0.090  0.090  0.112  0.186  0.186
    eigenvectors:
  0.000  0.000  1.000  0.000  0.000
  0.103  0.892  0.000  0.004  0.001
  0.892  0.103  0.000  0.001  0.004
  0.005  0.001  0.000  0.194  0.801
  0.001  0.005  0.000  0.801  0.194
    occupations:
  0.112 -0.000 -0.000 -0.000 -0.000
 -0.000  0.091 -0.000  0.000  0.007
 -0.000 -0.000  0.091  0.007 -0.000
 -0.000  0.000  0.007  0.186  0.000
 -0.000  0.007 -0.000  0.000  0.186
atomic mag. moment =   3.93661
N of occupied +U levels =    5.268376
 --- exit write_ns ---

 ------ SPIN UP ------------


          k = 0.0000 0.0000 0.0000 (287679 PWs)   bands (ev):

   -73.4926 -56.4163 -56.3369 -56.3345 -56.3345 -56.3293 -56.3293 -56.3263
   -56.2928 -56.2875 -56.2875 -56.2387 -56.2373 -56.2373 -56.2156 -56.2065
   -56.2065 -44.9556 -44.9556 -44.8964 -32.5942 -32.5942 -32.5702 -32.5282
   -32.5282 -32.4860 -32.4809 -32.4775 -32.4765 -32.4765 -32.4561 -32.4561
   -32.4233 -32.4192 -32.4166 -32.4166 -32.4123 -32.4123 -32.3990 -32.3990
   -32.3921 -32.3909 -32.3879 -32.3879 -32.3844 -32.3763 -32.3580 -32.3556
   -32.3556 -32.3436 -32.3436 -32.3191 -32.3191 -32.3037 -32.3034 -32.3011
   -32.3011 -32.2960 -32.2863 -32.2863 -32.2736 -32.2736 -32.2675 -32.2675
   -32.2669 -32.2110 -32.2056 -32.2056 -15.0847 -14.6341 -14.6341 -14.5570
   -14.3067 -14.3067 -14.2968 -14.1193 -14.0335 -14.0335 -13.8381 -13.6980
   -13.6980 -13.6836 -13.6464 -13.6464 -13.5470 -13.5337 -13.5337 -13.5082
   -13.5003 -13.5003 -13.4902 -13.4012 -13.4012 -13.3595 -13.3388 -13.3388
   -13.3348 -13.3181 -13.2904 -13.2904  -6.7823  -6.5043  -6.5043  -6.3519
    -6.2540  -6.2540  -6.0265  -5.8899  -5.8899  -5.7404  -5.7307  -5.7056
    -5.7056  -5.6194  -5.6194  -5.5794  -5.5192  -5.5192  -5.5077  -5.4592
    -5.4592  -5.4259  -5.3837  -5.3724  -5.3724  -5.2918  -5.2918  -5.0852
    -5.0852  -4.8636  -4.7572  -4.7311  -4.7311  -4.6726  -4.6501  -4.6501
    -4.5905  -4.5837  -4.5837  -4.5339  -4.4447  -4.4447  -4.4219  -4.3131
    -4.3131  -4.2180  -4.1527  -4.1527  -4.0409  -4.0409  -4.0360  -4.0293
    -3.9467  -3.9467  -3.8572  -3.8174  -3.8174  -3.8151  -3.7403  -3.7403
    -3.7071  -3.7071  -3.6416  -3.6034  -3.5171  -3.5171  -3.0803  -3.0510
    -3.0510  -3.0192  -3.0192  -2.9864  -2.9510  -2.8611  -2.8571  -2.8571
    -2.7939  -2.7939  -2.7041  -2.6872  -2.6872  -2.6652  -2.5704  -2.5591
    -2.5533  -2.5533  -2.4753  -2.4753  -2.4270  -2.4257  -2.4257  -2.4034
    -2.3345  -2.3345  -2.2381  -2.2381  -2.0260  -2.0260  -2.0199  -1.7872
    -1.7872  -1.5389  -1.5206  -1.5206  -1.4912  -1.4252  -1.4252  -1.3368
    -1.2736  -1.2736  -1.1736  -1.1736  -1.1332  -1.0372  -0.9993  -0.9993
    -0.7894   0.7121   0.9725   0.9725   1.0223   1.0456   1.0539   1.0539
     1.0819   1.1310   1.1310   1.1711   1.1711   1.1901   1.2747   1.2747
     1.2808   1.3230   1.3230   1.3339   1.3405   1.3405   1.3706   1.5169
     1.5662   1.5662   1.6119   1.6119   1.6457   1.6459   1.6863   1.7239

          k = 0.0000 0.1925 0.0000 (287730 PWs)   bands (ev):

   -73.4926 -56.4163 -56.3369 -56.3345 -56.3345 -56.3292 -56.3292 -56.3263
   -56.2928 -56.2875 -56.2875 -56.2388 -56.2373 -56.2372 -56.2156 -56.2065
   -56.2065 -44.9556 -44.9556 -44.8964 -32.5936 -32.5929 -32.5684 -32.5300
   -32.5285 -32.4860 -32.4824 -32.4821 -32.4757 -32.4726 -32.4611 -32.4551
   -32.4224 -32.4187 -32.4186 -32.4152 -32.4129 -32.4124 -32.4007 -32.4006
   -32.3987 -32.3958 -32.3904 -32.3851 -32.3760 -32.3712 -32.3580 -32.3536
   -32.3505 -32.3424 -32.3422 -32.3195 -32.3192 -32.3061 -32.3041 -32.3036
   -32.3009 -32.2929 -32.2873 -32.2854 -32.2755 -32.2740 -32.2678 -32.2674
   -32.2644 -32.2113 -32.2075 -32.2059 -15.0688 -14.6954 -14.6423 -14.5274
   -14.3851 -14.2903 -14.2024 -14.1040 -14.0231 -14.0067 -13.8346 -13.7501
   -13.7137 -13.6777 -13.6501 -13.6270 -13.5893 -13.5691 -13.5453 -13.5111
   -13.5016 -13.4651 -13.4560 -13.4002 -13.3998 -13.3643 -13.3606 -13.3491
   -13.3393 -13.3068 -13.2753 -13.2729  -6.7589  -6.4780  -6.4712  -6.3453
    -6.2646  -6.2547  -6.0123  -5.9112  -5.8988  -5.7978  -5.7434  -5.7024
    -5.6923  -5.6393  -5.6237  -5.5955  -5.5762  -5.5521  -5.5189  -5.4999
    -5.4644  -5.4510  -5.4055  -5.3721  -5.3376  -5.2008  -5.1826  -5.0745
    -5.0648  -4.8932  -4.8241  -4.7636  -4.7550  -4.6797  -4.6632  -4.6296
    -4.6189  -4.5867  -4.5531  -4.5408  -4.5072  -4.4473  -4.4304  -4.3224
    -4.3066  -4.2474  -4.1364  -4.0965  -4.0661  -4.0178  -4.0051  -3.9913
    -3.9722  -3.9628  -3.9049  -3.8894  -3.7909  -3.7781  -3.6835  -3.6770
    -3.6258  -3.6132  -3.5528  -3.5269  -3.4135  -3.3809  -3.2248  -3.1975
    -3.1676  -3.0776  -3.0507  -2.9911  -2.9444  -2.9224  -2.8622  -2.8430
    -2.8126  -2.7943  -2.7559  -2.7297  -2.6591  -2.6355  -2.6007  -2.5937
    -2.5474  -2.5210  -2.4883  -2.4864  -2.4234  -2.4088  -2.3608  -2.3381
    -2.2872  -2.2839  -2.2293  -2.1981  -2.1499  -2.0979  -2.0272  -1.8470
    -1.7965  -1.5957  -1.5286  -1.4973  -1.4747  -1.4029  -1.3854  -1.2952
    -1.2891  -1.2752  -1.2206  -1.1480  -1.0547  -1.0110  -0.9617  -0.9612
    -0.7911   0.7041   0.9431   0.9491   0.9912   1.0131   1.0216   1.0301
     1.0830   1.0993   1.1427   1.1484   1.1764   1.1981   1.2607   1.2778
     1.2860   1.3045   1.3187   1.3446   1.3480   1.3746   1.3998   1.4630
     1.5007   1.5446   1.5818   1.6023   1.6119   1.6381   1.6453   1.6988

          k = 0.0000 0.3849 0.0000 (287830 PWs)   bands (ev):

   -73.4926 -56.4163 -56.3368 -56.3347 -56.3345 -56.3292 -56.3291 -56.3264
   -56.2928 -56.2875 -56.2875 -56.2389 -56.2373 -56.2371 -56.2156 -56.2065
   -56.2065 -44.9556 -44.9556 -44.8964 -32.5924 -32.5902 -32.5641 -32.5340
   -32.5292 -32.4887 -32.4860 -32.4855 -32.4744 -32.4720 -32.4583 -32.4553
   -32.4340 -32.4225 -32.4178 -32.4144 -32.4128 -32.4062 -32.4045 -32.4027
   -32.3986 -32.3973 -32.3918 -32.3907 -32.3689 -32.3630 -32.3559 -32.3504
   -32.3465 -32.3379 -32.3350 -32.3203 -32.3197 -32.3124 -32.3058 -32.3051
   -32.2995 -32.2902 -32.2895 -32.2836 -32.2793 -32.2748 -32.2680 -32.2671
   -32.2597 -32.2119 -32.2119 -32.2064 -15.0262 -14.7885 -14.6569 -14.5346
   -14.3866 -14.2595 -14.1850 -14.0249 -13.9890 -13.9271 -13.8466 -13.7932
   -13.7762 -13.7324 -13.6780 -13.6341 -13.5773 -13.5761 -13.5311 -13.5111
   -13.5027 -13.4812 -13.4671 -13.3997 -13.3910 -13.3813 -13.3548 -13.3467
   -13.3399 -13.3044 -13.2519 -13.2507  -6.7009  -6.4113  -6.4078  -6.3546
    -6.2567  -6.2354  -6.0122  -5.9821  -5.9312  -5.8768  -5.7672  -5.7352
    -5.7286  -5.6715  -5.6510  -5.6423  -5.5947  -5.5912  -5.5544  -5.4874
    -5.4433  -5.4410  -5.3907  -5.3381  -5.3377  -5.1943  -5.1263  -4.9926
    -4.9439  -4.9320  -4.8153  -4.7957  -4.7720  -4.7308  -4.6966  -4.6942
    -4.6607  -4.6395  -4.6067  -4.5912  -4.5411  -4.5172  -4.4249  -4.3307
    -4.3009  -4.2078  -4.1460  -4.0929  -4.0786  -3.9629  -3.9497  -3.9210
    -3.9198  -3.8824  -3.8627  -3.7985  -3.7612  -3.7349  -3.6624  -3.6249
    -3.5536  -3.5408  -3.4811  -3.4301  -3.3457  -3.3080  -3.2872  -3.2415
    -3.1434  -3.1395  -3.0980  -3.0941  -2.9689  -2.9329  -2.9092  -2.8995
    -2.8268  -2.7676  -2.7579  -2.7295  -2.7065  -2.6790  -2.6309  -2.6206
    -2.5727  -2.5615  -2.5479  -2.5157  -2.4460  -2.4441  -2.3858  -2.3531
    -2.3299  -2.2372  -2.2070  -2.1843  -2.1290  -2.0745  -1.9897  -1.8952
    -1.8107  -1.6639  -1.5681  -1.4719  -1.4484  -1.3778  -1.3519  -1.3109
    -1.2957  -1.2176  -1.2171  -1.1003  -1.0077  -0.9567  -0.8849  -0.8664
    -0.7949   0.6830   0.8900   0.8910   0.9178   0.9420   0.9566   0.9858
     1.0095   1.1089   1.1584   1.1600   1.2037   1.2221   1.2525   1.2774
     1.2845   1.2992   1.3216   1.3620   1.3681   1.3692   1.3957   1.4146
     1.4546   1.4969   1.5042   1.5633   1.5699   1.5857   1.6103   1.6458

          k = 0.0000-0.5774 0.0000 (287882 PWs)   bands (ev):

   -73.4926 -56.4163 -56.3367 -56.3347 -56.3346 -56.3292 -56.3290 -56.3264
   -56.2928 -56.2875 -56.2875 -56.2389 -56.2373 -56.2371 -56.2156 -56.2065
   -56.2065 -44.9556 -44.9556 -44.8964 -32.5917 -32.5888 -32.5615 -32.5363
   -32.5296 -32.4932 -32.4868 -32.4860 -32.4748 -32.4692 -32.4569 -32.4521
   -32.4431 -32.4243 -32.4171 -32.4156 -32.4131 -32.4057 -32.4042 -32.4013
   -32.3984 -32.3975 -32.3943 -32.3908 -32.3665 -32.3613 -32.3543 -32.3493
   -32.3456 -32.3335 -32.3297 -32.3208 -32.3207 -32.3159 -32.3066 -32.3066
   -32.2985 -32.2907 -32.2892 -32.2829 -32.2814 -32.2751 -32.2681 -32.2669
   -32.2570 -32.2144 -32.2123 -32.2067 -14.9916 -14.8426 -14.6635 -14.5472
   -14.3718 -14.2453 -14.1911 -13.9543 -13.9463 -13.9183 -13.8508 -13.8310
   -13.7992 -13.7532 -13.6852 -13.6831 -13.5716 -13.5533 -13.5154 -13.5080
   -13.5043 -13.4887 -13.4795 -13.4317 -13.3905 -13.3798 -13.3434 -13.3419
   -13.3350 -13.3040 -13.2427 -13.2419  -6.6609  -6.4286  -6.3638  -6.3068
    -6.2587  -6.1899  -6.0470  -6.0372  -5.9998  -5.8616  -5.7762  -5.7626
    -5.7603  -5.7094  -5.6498  -5.6485  -5.6116  -5.5856  -5.5543  -5.4773
    -5.4445  -5.4422  -5.3920  -5.3344  -5.2635  -5.1975  -5.1330  -5.0302
    -4.9355  -4.8584  -4.8186  -4.7745  -4.7735  -4.7476  -4.7073  -4.7066
    -4.6607  -4.6560  -4.6338  -4.6216  -4.5930  -4.5860  -4.4025  -4.3715
    -4.2894  -4.2376  -4.1236  -4.0709  -4.0453  -3.9366  -3.9066  -3.8616
    -3.8399  -3.8129  -3.7912  -3.7754  -3.7617  -3.7276  -3.7052  -3.6586
    -3.6051  -3.5536  -3.4925  -3.4202  -3.3859  -3.3287  -3.2729  -3.2093
    -3.1550  -3.0184  -2.9608  -2.9365  -2.9265  -2.9125  -2.8939  -2.8700
    -2.8434  -2.8289  -2.8197  -2.7884  -2.7558  -2.7278  -2.7240  -2.7047
    -2.6981  -2.6224  -2.5955  -2.5515  -2.4355  -2.4301  -2.3852  -2.3674
    -2.3516  -2.2519  -2.1923  -2.1293  -2.1269  -2.0144  -1.9600  -1.9157
    -1.7993  -1.6831  -1.5881  -1.4436  -1.4297  -1.4268  -1.3524  -1.2818
    -1.2788  -1.2214  -1.2011  -1.0811  -0.9916  -0.9169  -0.8607  -0.8190
    -0.7919   0.6697   0.8557   0.8627   0.8798   0.9076   0.9289   0.9645
     0.9662   1.1229   1.1721   1.2024   1.2134   1.2311   1.2574   1.2717
     1.2877   1.2924   1.3184   1.3221   1.3593   1.3829   1.3852   1.4148
     1.4613   1.4620   1.4838   1.5138   1.5162   1.5799   1.5908   1.6138

          k = 0.1667 0.2887 0.0000 (287748 PWs)   bands (ev):

   -73.4926 -56.4163 -56.3368 -56.3346 -56.3345 -56.3292 -56.3291 -56.3264
   -56.2928 -56.2875 -56.2875 -56.2388 -56.2373 -56.2371 -56.2156 -56.2065
   -56.2065 -44.9556 -44.9556 -44.8964 -32.5926 -32.5910 -32.5653 -32.5325
   -32.5294 -32.4863 -32.4860 -32.4838 -32.4780 -32.4709 -32.4599 -32.4548
   -32.4279 -32.4229 -32.4180 -32.4140 -32.4127 -32.4113 -32.4031 -32.4027
   -32.3986 -32.3973 -32.3907 -32.3878 -32.3708 -32.3648 -32.3572 -32.3507
   -32.3466 -32.3401 -32.3371 -32.3201 -32.3194 -32.3092 -32.3086 -32.3028
   -32.2997 -32.2910 -32.2886 -32.2842 -32.2777 -32.2753 -32.2679 -32.2674
   -32.2609 -32.2119 -32.2103 -32.2065 -15.0392 -14.7546 -14.6760 -14.5107
   -14.3949 -14.2718 -14.1751 -14.0709 -13.9744 -13.9635 -13.8383 -13.7891
   -13.7649 -13.6881 -13.6543 -13.6428 -13.6084 -13.5572 -13.5503 -13.5406
   -13.4897 -13.4663 -13.4269 -13.4254 -13.3860 -13.3720 -13.3694 -13.3515
   -13.3411 -13.2945 -13.2691 -13.2483  -6.7176  -6.4317  -6.4153  -6.3579
    -6.2569  -6.2478  -6.0039  -5.9441  -5.9167  -5.8561  -5.7865  -5.7619
    -5.7282  -5.6810  -5.6301  -5.6100  -5.5728  -5.5661  -5.5414  -5.5176
    -5.4599  -5.4349  -5.3858  -5.3743  -5.2493  -5.1975  -5.1742  -5.0570
    -4.9562  -4.9150  -4.8116  -4.7791  -4.7545  -4.7072  -4.6907  -4.6767
    -4.6619  -4.6554  -4.5989  -4.5902  -4.5763  -4.5078  -4.3732  -4.3256
    -4.2910  -4.2164  -4.1769  -4.1117  -4.0090  -3.9910  -3.9711  -3.9520
    -3.9414  -3.8735  -3.8300  -3.7911  -3.7480  -3.7428  -3.6916  -3.6505
    -3.6046  -3.5779  -3.5050  -3.4133  -3.3546  -3.3334  -3.3085  -3.2436
    -3.2140  -3.1533  -3.1149  -2.9976  -2.9414  -2.9217  -2.8708  -2.8544
    -2.8184  -2.8119  -2.7810  -2.7253  -2.6841  -2.6676  -2.6255  -2.6036
    -2.5883  -2.5545  -2.5347  -2.5091  -2.4306  -2.4103  -2.3687  -2.3021
    -2.2882  -2.2567  -2.2243  -2.1781  -2.1469  -2.1072  -2.0526  -1.9044
    -1.8002  -1.6147  -1.5543  -1.4891  -1.4138  -1.4058  -1.3602  -1.3454
    -1.2922  -1.2509  -1.1897  -1.0909  -1.0066  -0.9714  -0.9577  -0.8620
    -0.7900   0.6871   0.8822   0.8899   0.9144   0.9886   1.0014   1.0379
     1.0653   1.0803   1.1164   1.1424   1.1644   1.2330   1.2554   1.2824
     1.2936   1.3075   1.3265   1.3431   1.3550   1.3928   1.4042   1.4203
     1.4624   1.4996   1.5293   1.5523   1.5663   1.5916   1.6311   1.6514

          k = 0.1667 0.4811 0.0000 (287831 PWs)   bands (ev):

   -73.4926 -56.4163 -56.3367 -56.3347 -56.3346 -56.3292 -56.3291 -56.3264
   -56.2928 -56.2875 -56.2875 -56.2389 -56.2373 -56.2371 -56.2156 -56.2065
   -56.2065 -44.9556 -44.9556 -44.8964 -32.5915 -32.5891 -32.5616 -32.5350
   -32.5306 -32.4923 -32.4864 -32.4860 -32.4780 -32.4703 -32.4564 -32.4516
   -32.4370 -32.4253 -32.4172 -32.4158 -32.4150 -32.4127 -32.4040 -32.3995
   -32.3982 -32.3975 -32.3910 -32.3885 -32.3687 -32.3611 -32.3548 -32.3492
   -32.3435 -32.3358 -32.3309 -32.3209 -32.3199 -32.3142 -32.3099 -32.3027
   -32.2987 -32.2907 -32.2894 -32.2828 -32.2804 -32.2764 -32.2679 -32.2672
   -32.2574 -32.2140 -32.2119 -32.2072 -14.9950 -14.8195 -14.7119 -14.5072
   -14.3722 -14.2640 -14.1623 -14.0379 -13.9232 -13.8983 -13.8569 -13.8240
   -13.7712 -13.7257 -13.6925 -13.6625 -13.6201 -13.5902 -13.5340 -13.5051
   -13.4917 -13.4719 -13.4434 -13.4162 -13.3997 -13.3940 -13.3733 -13.3321
   -13.3284 -13.2913 -13.2582 -13.2322  -6.6629  -6.4178  -6.3648  -6.3292
    -6.2461  -6.1957  -6.0280  -6.0050  -5.9605  -5.8843  -5.8462  -5.8192
    -5.7930  -5.7290  -5.6791  -5.6149  -5.5718  -5.5603  -5.5251  -5.4963
    -5.4348  -5.4036  -5.3496  -5.2914  -5.2654  -5.2132  -5.1157  -5.0264
    -4.9623  -4.9104  -4.8533  -4.7958  -4.7888  -4.7462  -4.7348  -4.7076
    -4.6954  -4.6729  -4.6445  -4.6172  -4.5862  -4.4937  -4.4606  -4.3705
    -4.2780  -4.2079  -4.0852  -4.0458  -3.9492  -3.9380  -3.9115  -3.8686
    -3.8394  -3.8239  -3.7979  -3.7682  -3.7469  -3.6960  -3.6716  -3.6199
    -3.6002  -3.5605  -3.5287  -3.5008  -3.4647  -3.3707  -3.3286  -3.2761
    -3.1697  -2.9986  -2.9758  -2.9436  -2.9229  -2.8975  -2.8811  -2.8606
    -2.8465  -2.8039  -2.7978  -2.7676  -2.7182  -2.7020  -2.6982  -2.6571
    -2.6178  -2.5971  -2.5730  -2.5414  -2.5142  -2.4805  -2.4127  -2.3587
    -2.3068  -2.2628  -2.2371  -2.1792  -2.1062  -2.0611  -2.0260  -1.8851
    -1.7884  -1.6167  -1.5389  -1.4761  -1.4249  -1.4126  -1.3687  -1.3252
    -1.3114  -1.2478  -1.1273  -1.0534  -0.9832  -0.9385  -0.8945  -0.8445
    -0.7429   0.6629   0.7922   0.8319   0.8542   0.9714   0.9849   1.0148
     1.0323   1.1161   1.1398   1.1506   1.1890   1.2283   1.2396   1.2488
     1.2705   1.2928   1.3369   1.3459   1.3726   1.3945   1.4054   1.4172
     1.4365   1.4563   1.4910   1.5134   1.5353   1.5379   1.5635   1.5848

          k = 0.3333 0.5774 0.0000 (287970 PWs)   bands (ev):

   -73.4926 -56.4163 -56.3367 -56.3347 -56.3347 -56.3291 -56.3291 -56.3264
   -56.2928 -56.2875 -56.2875 -56.2389 -56.2373 -56.2370 -56.2156 -56.2065
   -56.2065 -44.9556 -44.9556 -44.8964 -32.5908 -32.5887 -32.5604 -32.5336
   -32.5330 -32.4942 -32.4867 -32.4860 -32.4798 -32.4708 -32.4566 -32.4464
   -32.4359 -32.4263 -32.4236 -32.4164 -32.4159 -32.4134 -32.4048 -32.3982
   -32.3977 -32.3974 -32.3911 -32.3847 -32.3704 -32.3605 -32.3540 -32.3490
   -32.3382 -32.3363 -32.3326 -32.3212 -32.3195 -32.3149 -32.3102 -32.3007
   -32.2990 -32.2911 -32.2898 -32.2813 -32.2806 -32.2787 -32.2677 -32.2676
   -32.2565 -32.2146 -32.2120 -32.2079 -14.9756 -14.8186 -14.7637 -14.4853
   -14.3565 -14.2794 -14.1151 -14.0814 -13.9466 -13.8682 -13.8554 -13.7699
   -13.7375 -13.7204 -13.7102 -13.6955 -13.6586 -13.6351 -13.5313 -13.5046
   -13.4722 -13.4505 -13.4185 -13.4170 -13.4146 -13.4068 -13.4053 -13.3232
   -13.3184 -13.2837 -13.2622 -13.2252  -6.6407  -6.4258  -6.3537  -6.3059
    -6.2257  -6.1721  -6.0063  -5.9783  -5.9771  -5.9276  -5.9109  -5.9074
    -5.8146  -5.7610  -5.6848  -5.6274  -5.5888  -5.5278  -5.5224  -5.4418
    -5.4395  -5.3586  -5.2851  -5.2695  -5.1860  -5.1491  -5.1180  -5.1009
    -4.9751  -4.9664  -4.9347  -4.8711  -4.7864  -4.7763  -4.7549  -4.7356
    -4.7160  -4.7005  -4.6316  -4.6192  -4.5694  -4.4939  -4.4022  -4.3395
    -4.3023  -4.1404  -4.0813  -4.0463  -3.9177  -3.9088  -3.8504  -3.8168
    -3.7901  -3.7747  -3.7648  -3.7348  -3.7321  -3.7222  -3.7111  -3.6745
    -3.6328  -3.6106  -3.5051  -3.4787  -3.4238  -3.3703  -3.3661  -3.3623
    -3.2219  -3.1799  -3.0128  -2.9152  -2.8681  -2.8620  -2.8566  -2.8006
    -2.7933  -2.7849  -2.6987  -2.6965  -2.6911  -2.6536  -2.6472  -2.6338
    -2.6325  -2.6265  -2.6093  -2.5570  -2.5462  -2.5284  -2.4851  -2.4614
    -2.3935  -2.2867  -2.2163  -2.2151  -2.1441  -2.0409  -2.0189  -1.8578
    -1.7715  -1.5299  -1.5112  -1.4735  -1.4594  -1.4252  -1.3943  -1.3489
    -1.3143  -1.2534  -1.0409  -1.0383  -1.0166  -0.8938  -0.8915  -0.8828
    -0.6978   0.6484   0.7365   0.7992   0.8224   0.9926   1.0171   1.0507
     1.1031   1.1111   1.1220   1.1439   1.1710   1.1846   1.2354   1.2358
     1.2498   1.2804   1.2902   1.3380   1.3914   1.4015   1.4241   1.4286
     1.4482   1.4508   1.4744   1.4819   1.5172   1.5274   1.5545   1.5572

 ------ SPIN DOWN ----------


          k = 0.0000 0.0000 0.0000 (287679 PWs)   bands (ev):

   -69.7225 -56.5045 -56.4936 -56.4936 -56.3932 -56.3931 -56.3931 -56.3037
   -56.3007 -56.3007 -56.2952 -56.2952 -56.2927 -56.2732 -56.2627 -56.2627
   -56.2298 -41.2993 -41.2993 -41.0514 -32.7034 -32.6604 -32.6604 -32.6309
   -32.6231 -32.6231 -32.5895 -32.5895 -32.5895 -32.5616 -32.5616 -32.5589
   -32.5312 -32.5312 -32.5155 -32.5153 -32.4684 -32.4684 -32.4511 -32.4484
   -32.4484 -32.4453 -32.4246 -32.4246 -32.4026 -32.3874 -32.3874 -32.3754
   -32.3669 -32.3669 -32.3655 -32.3655 -32.3569 -32.3569 -32.3568 -32.3515
   -32.3496 -32.3496 -32.3447 -32.3430 -32.3277 -32.3277 -32.3080 -32.2952
   -32.2952 -32.2738 -32.2705 -32.2705 -15.0705 -14.5676 -14.5676 -14.5246
   -14.3084 -14.3084 -14.2999 -14.1103 -13.9961 -13.9961 -13.8331 -13.7008
   -13.7008 -13.6864 -13.6410 -13.6410 -13.5476 -13.5365 -13.5365 -13.5136
   -13.5016 -13.5016 -13.4962 -13.3996 -13.3996 -13.3614 -13.3437 -13.3437
   -13.3376 -13.3232 -13.2900 -13.2900  -6.6332  -6.4314  -6.4314  -6.3245
    -5.8982  -5.8843  -5.8843  -5.7561  -5.7300  -5.7300  -5.6674  -5.6278
    -5.6278  -5.6056  -5.5435  -5.5435  -5.5243  -5.5243  -5.5128  -5.4472
    -5.4340  -5.4340  -5.3849  -5.3599  -5.3599  -5.0577  -5.0577  -4.8485
    -4.7881  -4.7881  -4.7424  -4.6862  -4.6862  -4.6733  -4.6509  -4.6509
    -4.5784  -4.5701  -4.5701  -4.5503  -4.3866  -4.3866  -4.3417  -4.2290
    -4.2290  -4.2164  -4.1263  -4.1263  -4.0442  -4.0247  -4.0247  -3.9988
    -3.8758  -3.8263  -3.8263  -3.7611  -3.7546  -3.7546  -3.7045  -3.7045
    -3.6555  -3.2570  -3.2570  -3.0963  -3.0963  -3.0917  -3.0579  -3.0579
    -3.0146  -3.0095  -3.0095  -2.9957  -2.9077  -2.7960  -2.7960  -2.7173
    -2.7134  -2.7134  -2.6737  -2.6055  -2.6055  -2.5735  -2.5682  -2.5497
    -2.5497  -2.4588  -2.4588  -2.4534  -2.4309  -2.4264  -2.4264  -2.1668
    -2.1668  -2.0478  -2.0478  -2.0321  -1.9823  -1.7237  -1.7237  -1.5993
    -1.5891  -1.5891  -1.5178  -1.4812  -1.4812  -1.3165  -1.3030  -1.2428
    -1.2428  -1.1470  -1.1470  -0.8661   0.4923   0.4923   0.6665   0.7968
     0.7968   0.9499   0.9499   1.0074   1.0558   1.0750   1.0911   1.0911
     1.1429   1.1703   1.1703   1.1879   1.1879   1.2518   1.2571   1.2898
     1.2898   1.3427   1.3970   1.3970   1.4499   1.4499   1.4848   1.5528
     1.5528   1.6289   1.6289   1.6357   1.6485   1.6485   1.7368   1.7369

          k = 0.0000 0.1925 0.0000 (287730 PWs)   bands (ev):

   -69.7225 -56.5045 -56.4936 -56.4936 -56.3933 -56.3931 -56.3930 -56.3038
   -56.3007 -56.3007 -56.2952 -56.2952 -56.2927 -56.2732 -56.2627 -56.2627
   -56.2298 -41.2993 -41.2993 -41.0514 -32.7028 -32.6596 -32.6592 -32.6308
   -32.6231 -32.6230 -32.5908 -32.5904 -32.5883 -32.5675 -32.5636 -32.5585
   -32.5313 -32.5277 -32.5141 -32.5130 -32.4684 -32.4676 -32.4538 -32.4510
   -32.4482 -32.4458 -32.4271 -32.4243 -32.4069 -32.3858 -32.3781 -32.3754
   -32.3668 -32.3665 -32.3654 -32.3652 -32.3623 -32.3550 -32.3527 -32.3522
   -32.3500 -32.3484 -32.3436 -32.3401 -32.3279 -32.3277 -32.3094 -32.2968
   -32.2959 -32.2738 -32.2726 -32.2708 -15.0534 -14.6539 -14.5809 -14.4860
   -14.3700 -14.2809 -14.1928 -14.0939 -13.9924 -13.9871 -13.8276 -13.7515
   -13.7136 -13.6781 -13.6532 -13.6295 -13.5862 -13.5687 -13.5461 -13.5148
   -13.5037 -13.4657 -13.4589 -13.4012 -13.4011 -13.3669 -13.3639 -13.3501
   -13.3432 -13.3107 -13.2762 -13.2733  -6.6001  -6.3975  -6.3908  -6.2990
    -5.9619  -5.8747  -5.8631  -5.8132  -5.7627  -5.7216  -5.7172  -5.6466
    -5.6364  -5.6166  -5.5948  -5.5905  -5.5442  -5.5336  -5.5192  -5.5002
    -5.4632  -5.4259  -5.3878  -5.2344  -5.2117  -5.0710  -5.0578  -4.8737
    -4.8270  -4.8074  -4.7683  -4.6968  -4.6956  -4.6707  -4.6463  -4.6189
    -4.6006  -4.5814  -4.5538  -4.5494  -4.4373  -4.4288  -4.4035  -4.2419
    -4.2302  -4.1076  -4.0929  -4.0405  -4.0312  -4.0030  -3.9889  -3.9761
    -3.9611  -3.9071  -3.7527  -3.7441  -3.6807  -3.6802  -3.6463  -3.5297
    -3.4737  -3.3175  -3.3108  -3.2394  -3.2190  -3.1706  -3.1183  -3.0830
    -3.0583  -3.0134  -2.9977  -2.9163  -2.8968  -2.8374  -2.8288  -2.7857
    -2.7255  -2.7065  -2.6776  -2.6263  -2.6164  -2.5876  -2.5829  -2.5371
    -2.5196  -2.4748  -2.4701  -2.3829  -2.3577  -2.3173  -2.3146  -2.2246
    -2.2196  -2.1782  -2.1267  -2.0552  -1.9723  -1.7324  -1.6797  -1.6438
    -1.5735  -1.5698  -1.4999  -1.4637  -1.4531  -1.3569  -1.2611  -1.2227
    -1.2141  -1.1046  -1.0786  -0.8720   0.4812   0.4887   0.6665   0.7745
     0.7907   0.9072   0.9209   0.9903   0.9968   1.0437   1.0856   1.1175
     1.1288   1.1587   1.1668   1.2022   1.2058   1.2256   1.2612   1.2885
     1.2943   1.3646   1.3790   1.3825   1.4259   1.4692   1.4876   1.5280
     1.5398   1.5825   1.5855   1.6041   1.6244   1.6388   1.6844   1.6926

          k = 0.0000 0.3849 0.0000 (287830 PWs)   bands (ev):

   -69.7225 -56.5045 -56.4936 -56.4936 -56.3934 -56.3931 -56.3930 -56.3038
   -56.3007 -56.3006 -56.2953 -56.2953 -56.2926 -56.2732 -56.2627 -56.2627
   -56.2298 -41.2994 -41.2993 -41.0514 -32.7015 -32.6580 -32.6568 -32.6307
   -32.6233 -32.6226 -32.5934 -32.5916 -32.5854 -32.5789 -32.5679 -32.5568
   -32.5313 -32.5224 -32.5119 -32.5077 -32.4690 -32.4662 -32.4611 -32.4566
   -32.4477 -32.4441 -32.4315 -32.4268 -32.4039 -32.3836 -32.3757 -32.3728
   -32.3689 -32.3669 -32.3658 -32.3643 -32.3610 -32.3533 -32.3524 -32.3509
   -32.3480 -32.3431 -32.3430 -32.3315 -32.3283 -32.3277 -32.3140 -32.3014
   -32.2973 -32.2768 -32.2738 -32.2712 -15.0070 -14.7642 -14.6028 -14.5137
   -14.3274 -14.2273 -14.1595 -14.0211 -13.9768 -13.9286 -13.8455 -13.7926
   -13.7796 -13.7295 -13.6730 -13.6357 -13.5767 -13.5765 -13.5333 -13.5135
   -13.5047 -13.4819 -13.4694 -13.4022 -13.3938 -13.3799 -13.3563 -13.3501
   -13.3422 -13.3075 -13.2537 -13.2512  -6.5149  -6.2996  -6.2766  -6.2271
    -6.0803  -5.9701  -5.9191  -5.8725  -5.8488  -5.7802  -5.7116  -5.6791
    -5.6735  -5.6555  -5.6516  -5.6396  -5.5656  -5.5484  -5.5379  -5.4881
    -5.4389  -5.3984  -5.3639  -5.1486  -5.1024  -4.9852  -4.9630  -4.9277
    -4.8636  -4.8351  -4.8155  -4.7609  -4.7262  -4.7137  -4.6898  -4.6852
    -4.6388  -4.6149  -4.5887  -4.5574  -4.4960  -4.4834  -4.2723  -4.2536
    -4.1539  -4.0942  -4.0312  -3.9937  -3.9551  -3.9366  -3.9206  -3.9057
    -3.9041  -3.7784  -3.7648  -3.6723  -3.6255  -3.5940  -3.5678  -3.4505
    -3.4386  -3.3718  -3.3497  -3.2918  -3.2600  -3.1571  -3.1536  -3.1207
    -3.0770  -3.0723  -3.0186  -2.9202  -2.9186  -2.8517  -2.8380  -2.8334
    -2.7435  -2.7395  -2.7181  -2.7047  -2.7016  -2.6027  -2.6025  -2.5629
    -2.5600  -2.4754  -2.4663  -2.4385  -2.4309  -2.2972  -2.2727  -2.2507
    -2.1821  -2.1282  -2.0917  -2.0733  -1.9934  -1.7601  -1.6862  -1.6505
    -1.5774  -1.5449  -1.4811  -1.4392  -1.3991  -1.3694  -1.2209  -1.2038
    -1.1277  -1.0164  -0.9686  -0.8912   0.4647   0.4820   0.6577   0.7170
     0.7556   0.8390   0.8627   0.9083   0.9794   1.0123   1.0323   1.1076
     1.1248   1.1732   1.1751   1.2069   1.2176   1.2419   1.2503   1.3049
     1.3129   1.3324   1.3432   1.3907   1.4016   1.4273   1.4828   1.4858
     1.5093   1.5282   1.5549   1.5634   1.6040   1.6197   1.6438   1.6717

          k = 0.0000-0.5774 0.0000 (287882 PWs)   bands (ev):

   -69.7225 -56.5045 -56.4936 -56.4936 -56.3934 -56.3931 -56.3929 -56.3038
   -56.3007 -56.3006 -56.2954 -56.2953 -56.2926 -56.2732 -56.2628 -56.2627
   -56.2298 -41.2994 -41.2994 -41.0514 -32.7009 -32.6572 -32.6555 -32.6306
   -32.6234 -32.6220 -32.5946 -32.5912 -32.5855 -32.5834 -32.5706 -32.5560
   -32.5313 -32.5201 -32.5108 -32.5046 -32.4694 -32.4656 -32.4655 -32.4595
   -32.4475 -32.4428 -32.4333 -32.4275 -32.4015 -32.3830 -32.3759 -32.3726
   -32.3704 -32.3669 -32.3656 -32.3641 -32.3595 -32.3535 -32.3527 -32.3515
   -32.3470 -32.3428 -32.3355 -32.3286 -32.3277 -32.3229 -32.3209 -32.3054
   -32.2979 -32.2790 -32.2738 -32.2715 -14.9667 -14.8281 -14.6121 -14.5299
   -14.2958 -14.2003 -14.1675 -13.9574 -13.9483 -13.9217 -13.8480 -13.8316
   -13.7996 -13.7560 -13.6789 -13.6760 -13.5729 -13.5555 -13.5170 -13.5093
   -13.5052 -13.4915 -13.4830 -13.4346 -13.3924 -13.3759 -13.3489 -13.3435
   -13.3360 -13.3070 -13.2447 -13.2425  -6.4497  -6.1981  -6.1697  -6.1535
    -6.1254  -6.1076  -6.0268  -5.9971  -5.8385  -5.8274  -5.7352  -5.6882
    -5.6734  -5.6535  -5.6185  -5.6082  -5.5852  -5.5829  -5.5651  -5.4735
    -5.4533  -5.4041  -5.2202  -5.1957  -5.0839  -5.0491  -4.9120  -4.8869
    -4.8291  -4.8137  -4.7901  -4.7682  -4.7570  -4.7382  -4.7193  -4.7065
    -4.6842  -4.6572  -4.6488  -4.6217  -4.4887  -4.4533  -4.2816  -4.2126
    -4.1936  -4.0693  -3.9135  -3.8894  -3.8813  -3.8514  -3.8513  -3.8199
    -3.8191  -3.8026  -3.7859  -3.7780  -3.7500  -3.6543  -3.5521  -3.5141
    -3.3988  -3.3920  -3.3727  -3.2963  -3.1639  -3.1432  -3.0511  -3.0429
    -3.0085  -2.9609  -2.9384  -2.9206  -2.8855  -2.8825  -2.8734  -2.8396
    -2.8290  -2.8279  -2.8265  -2.7894  -2.7429  -2.7295  -2.7249  -2.7121
    -2.5490  -2.4542  -2.4400  -2.4221  -2.4113  -2.3881  -2.2312  -2.1792
    -2.1407  -2.1359  -2.0589  -2.0397  -2.0033  -1.7749  -1.6910  -1.6109
    -1.5958  -1.5821  -1.4677  -1.3964  -1.3840  -1.3735  -1.2163  -1.1944
    -1.0675  -0.9737  -0.9190  -0.9099   0.4587   0.4790   0.6521   0.6800
     0.7251   0.8086   0.8361   0.8766   0.9625   1.0040   1.0152   1.0967
     1.1267   1.1788   1.1812   1.2114   1.2333   1.2364   1.2723   1.3066
     1.3156   1.3464   1.3515   1.3602   1.3686   1.4129   1.4148   1.4588
     1.4653   1.5262   1.5642   1.5692   1.6015   1.6199   1.6319   1.6472

          k = 0.1667 0.2887 0.0000 (287748 PWs)   bands (ev):

   -69.7225 -56.5045 -56.4936 -56.4936 -56.3933 -56.3931 -56.3930 -56.3038
   -56.3007 -56.3006 -56.2953 -56.2953 -56.2926 -56.2732 -56.2627 -56.2627
   -56.2298 -41.2993 -41.2993 -41.0514 -32.7018 -32.6587 -32.6571 -32.6307
   -32.6234 -32.6226 -32.5935 -32.5901 -32.5872 -32.5756 -32.5645 -32.5605
   -32.5295 -32.5245 -32.5125 -32.5091 -32.4678 -32.4674 -32.4576 -32.4560
   -32.4487 -32.4441 -32.4350 -32.4202 -32.4071 -32.3849 -32.3757 -32.3737
   -32.3671 -32.3664 -32.3660 -32.3648 -32.3594 -32.3533 -32.3528 -32.3507
   -32.3491 -32.3470 -32.3430 -32.3340 -32.3282 -32.3277 -32.3125 -32.2995
   -32.2973 -32.2755 -32.2738 -32.2713 -15.0214 -14.7236 -14.6357 -14.4615
   -14.3599 -14.2425 -14.1568 -14.0519 -13.9681 -13.9593 -13.8348 -13.7890
   -13.7620 -13.6890 -13.6541 -13.6451 -13.6102 -13.5570 -13.5498 -13.5430
   -13.4906 -13.4655 -13.4293 -13.4285 -13.3885 -13.3761 -13.3700 -13.3539
   -13.3419 -13.2986 -13.2696 -13.2494  -6.5401  -6.3289  -6.3156  -6.2500
    -6.0338  -5.9205  -5.8777  -5.8561  -5.8209  -5.8003  -5.7546  -5.6963
    -5.6879  -5.6529  -5.6291  -5.5825  -5.5686  -5.5350  -5.5190  -5.5116
    -5.4315  -5.4224  -5.2653  -5.2422  -5.1204  -5.0534  -4.9462  -4.9055
    -4.8457  -4.8072  -4.7750  -4.7617  -4.7325  -4.7193  -4.6960  -4.6790
    -4.6705  -4.6403  -4.6032  -4.5865  -4.3965  -4.3847  -4.2985  -4.2505
    -4.2099  -4.1373  -4.1082  -3.9981  -3.9692  -3.9473  -3.9385  -3.8374
    -3.8139  -3.7898  -3.7734  -3.7435  -3.6904  -3.6530  -3.5234  -3.4662
    -3.4375  -3.4051  -3.3448  -3.3166  -3.2491  -3.2347  -3.1370  -3.0979
    -3.0884  -3.0307  -2.9310  -2.9189  -2.8811  -2.8638  -2.8470  -2.8302
    -2.7898  -2.7587  -2.6763  -2.6627  -2.6527  -2.6400  -2.5985  -2.5709
    -2.5301  -2.4798  -2.4384  -2.4065  -2.3143  -2.3052  -2.2514  -2.2443
    -2.2350  -2.2108  -2.1721  -2.0767  -1.9557  -1.7374  -1.6742  -1.6420
    -1.5703  -1.5521  -1.5054  -1.4479  -1.4382  -1.3530  -1.2115  -1.1871
    -1.1509  -1.0926  -0.9663  -0.8849   0.4639   0.4875   0.6580   0.7217
     0.7777   0.8406   0.8992   0.9275   0.9861   1.0307   1.0502   1.0861
     1.1297   1.1586   1.1772   1.2040   1.2143   1.2261   1.2661   1.3008
     1.3078   1.3366   1.3538   1.3833   1.4275   1.4445   1.4704   1.4831
     1.5142   1.5335   1.5656   1.5748   1.5878   1.6322   1.6533   1.6897

          k = 0.1667 0.4811 0.0000 (287831 PWs)   bands (ev):

   -69.7225 -56.5045 -56.4936 -56.4936 -56.3934 -56.3931 -56.3929 -56.3038
   -56.3006 -56.3006 -56.2954 -56.2953 -56.2926 -56.2732 -56.2628 -56.2627
   -56.2298 -41.2994 -41.2993 -41.0514 -32.7009 -32.6578 -32.6548 -32.6306
   -32.6237 -32.6219 -32.5950 -32.5917 -32.5860 -32.5805 -32.5689 -32.5614
   -32.5276 -32.5212 -32.5113 -32.5046 -32.4689 -32.4662 -32.4622 -32.4595
   -32.4509 -32.4427 -32.4391 -32.4186 -32.4043 -32.3857 -32.3764 -32.3743
   -32.3671 -32.3663 -32.3654 -32.3636 -32.3591 -32.3538 -32.3513 -32.3498
   -32.3466 -32.3430 -32.3384 -32.3286 -32.3277 -32.3265 -32.3186 -32.3045
   -32.2983 -32.2784 -32.2738 -32.2719 -14.9712 -14.8009 -14.6823 -14.4563
   -14.3101 -14.2231 -14.1456 -14.0304 -13.9245 -13.8981 -13.8582 -13.8240
   -13.7668 -13.7272 -13.6905 -13.6621 -13.6230 -13.5916 -13.5328 -13.5060
   -13.4925 -13.4724 -13.4464 -13.4189 -13.4025 -13.3943 -13.3762 -13.3329
   -13.3294 -13.2951 -13.2591 -13.2335  -6.4525  -6.2170  -6.1916  -6.1653
    -6.1120  -6.0224  -5.9748  -5.9607  -5.8895  -5.8255  -5.8221  -5.8043
    -5.7470  -5.6983  -5.6137  -5.5893  -5.5427  -5.5168  -5.4925  -5.4646
    -5.3804  -5.2909  -5.2887  -5.1623  -5.1156  -5.0380  -4.9891  -4.9122
    -4.8874  -4.8278  -4.8038  -4.7704  -4.7617  -4.7395  -4.7255  -4.7110
    -4.6883  -4.6660  -4.6469  -4.6170  -4.4524  -4.4244  -4.2833  -4.2005
    -4.1074  -4.0507  -3.9336  -3.9133  -3.9007  -3.8805  -3.8611  -3.8285
    -3.8088  -3.7661  -3.7458  -3.6828  -3.6776  -3.6156  -3.6035  -3.5620
    -3.5317  -3.4913  -3.3971  -3.2898  -3.2047  -3.1865  -3.0507  -3.0167
    -2.9994  -2.9515  -2.9421  -2.9220  -2.8907  -2.8747  -2.8638  -2.8565
    -2.8172  -2.8006  -2.7691  -2.7271  -2.7048  -2.6981  -2.6499  -2.6093
    -2.5786  -2.5580  -2.5369  -2.4557  -2.3793  -2.3381  -2.2649  -2.2529
    -2.1997  -2.1460  -2.0770  -2.0164  -1.9390  -1.7359  -1.6657  -1.6325
    -1.5737  -1.5633  -1.4924  -1.4665  -1.4377  -1.3020  -1.1789  -1.1591
    -1.0887  -1.0495  -0.9088  -0.8716   0.4488   0.4852   0.6310   0.6649
     0.7457   0.7972   0.8582   0.8960   0.9831   1.0108   1.0280   1.0778
     1.1283   1.1547   1.1880   1.1958   1.2083   1.2299   1.2556   1.3047
     1.3289   1.3378   1.3697   1.3755   1.3826   1.4164   1.4268   1.4506
     1.4673   1.4865   1.5204   1.5431   1.5576   1.6079   1.6532   1.7014

          k = 0.3333 0.5774 0.0000 (287970 PWs)   bands (ev):

   -69.7225 -56.5045 -56.4936 -56.4936 -56.3934 -56.3931 -56.3929 -56.3038
   -56.3006 -56.3006 -56.2954 -56.2953 -56.2926 -56.2732 -56.2628 -56.2627
   -56.2298 -41.2994 -41.2994 -41.0514 -32.7006 -32.6580 -32.6535 -32.6306
   -32.6240 -32.6215 -32.5950 -32.5938 -32.5864 -32.5771 -32.5684 -32.5681
   -32.5237 -32.5215 -32.5115 -32.5029 -32.4700 -32.4630 -32.4627 -32.4597
   -32.4558 -32.4444 -32.4403 -32.4120 -32.4067 -32.3883 -32.3770 -32.3744
   -32.3673 -32.3655 -32.3648 -32.3629 -32.3594 -32.3541 -32.3513 -32.3474
   -32.3432 -32.3428 -32.3347 -32.3291 -32.3287 -32.3276 -32.3195 -32.3065
   -32.2987 -32.2789 -32.2738 -32.2725 -14.9477 -14.8013 -14.7450 -14.4147
   -14.2852 -14.2536 -14.1075 -14.0777 -13.9370 -13.8697 -13.8484 -13.7726
   -13.7378 -13.7240 -13.7129 -13.6964 -13.6585 -13.6378 -13.5263 -13.5036
   -13.4726 -13.4519 -13.4209 -13.4205 -13.4176 -13.4106 -13.4067 -13.3232
   -13.3189 -13.2885 -13.2625 -13.2264  -6.4086  -6.2157  -6.1194  -6.0904
    -6.0375  -6.0328  -5.9977  -5.9827  -5.9686  -5.9147  -5.9123  -5.8970
    -5.8268  -5.7035  -5.6113  -5.5861  -5.5351  -5.4368  -5.4307  -5.4219
    -5.2598  -5.2429  -5.2106  -5.1634  -5.1525  -5.1136  -5.0272  -5.0057
    -4.9089  -4.8782  -4.8367  -4.8061  -4.7830  -4.7571  -4.7447  -4.7446
    -4.7037  -4.6643  -4.6441  -4.4671  -4.4138  -4.3874  -4.3555  -4.2029
    -4.0895  -3.9126  -3.8980  -3.8677  -3.8612  -3.8401  -3.8181  -3.7972
    -3.7971  -3.7536  -3.7359  -3.7298  -3.7261  -3.6946  -3.6830  -3.4826
    -3.4805  -3.4317  -3.4171  -3.3957  -3.3849  -3.1983  -3.1232  -2.9882
    -2.9844  -2.9542  -2.8984  -2.8956  -2.8800  -2.8778  -2.8246  -2.7911
    -2.7561  -2.7251  -2.6916  -2.6843  -2.6588  -2.6471  -2.6340  -2.6335
    -2.6196  -2.6025  -2.6023  -2.5621  -2.5476  -2.5419  -2.2341  -2.2236
    -2.2107  -2.1375  -2.0456  -1.9814  -1.9043  -1.7105  -1.6479  -1.6081
    -1.5885  -1.5324  -1.5103  -1.4997  -1.4898  -1.2544  -1.1283  -1.1188
    -1.1108  -1.0701  -0.9216  -0.8220   0.4389   0.4829   0.6010   0.6464
     0.7416   0.7754   0.8762   0.8823   1.0038   1.0256   1.0313   1.0559
     1.1261   1.1576   1.1651   1.1818   1.1906   1.2320   1.2575   1.2658
     1.3422   1.3577   1.3750   1.3858   1.3864   1.4090   1.4093   1.4319
     1.4322   1.4895   1.4989   1.5047   1.5264   1.5562   1.7014   1.7078

     the Fermi energy is    -1.2936 ev

!    total energy              =  -11657.67235542 Ry

     total all-electron energy =   -279870.081810 Ry
     estimated scf accuracy    <       0.00000007 Ry
     smearing contrib. (-TS)   =      -0.00654458 Ry
     internal energy E=F+TS    =  -11657.66581084 Ry

     The total energy is F=E-TS. E is the sum of the following terms:
     one-electron contribution =  -18258.91415909 Ry
     hartree contribution      =    9163.41622475 Ry
     xc contribution           =    -525.88402527 Ry
     ewald contribution        =    6960.54270414 Ry
     Hubbard energy            =       0.13577138 Ry
     one-center paw contrib.   =   -8996.96232675 Ry

     total magnetization       =     1.95 Bohr mag/cell
     absolute magnetization    =     9.08 Bohr mag/cell

     convergence has been achieved in  23 iterations

     Writing output data file ./tmp/adatom.save/
 
     init_run     :     66.34s CPU     68.40s WALL (       1 calls)
     electrons    :   2168.06s CPU   2190.31s WALL (       1 calls)

     Called by init_run:
     wfcinit      :     31.55s CPU     32.06s WALL (       1 calls)
     potinit      :     10.09s CPU     10.70s WALL (       1 calls)
     hinit0       :     16.70s CPU     17.20s WALL (       1 calls)

     Called by electrons:
     c_bands      :   1670.00s CPU   1676.00s WALL (      24 calls)
     sum_band     :    293.79s CPU    301.77s WALL (      24 calls)
     v_of_rho     :     32.69s CPU     33.48s WALL (      24 calls)
     newd         :     38.27s CPU     44.69s WALL (      24 calls)
     PAW_pot      :     18.27s CPU     18.63s WALL (      24 calls)
     mix_rho      :    116.51s CPU    117.33s WALL (      24 calls)

     Called by c_bands:
     init_us_2    :     11.40s CPU     11.45s WALL (     700 calls)
     cegterg      :   1629.97s CPU   1635.67s WALL (     337 calls)

     Called by *egterg:
     cdiaghg      :    122.51s CPU    122.98s WALL (    1994 calls)
     h_psi        :    905.11s CPU    909.22s WALL (    2022 calls)
     s_psi        :     89.24s CPU     89.35s WALL (    2036 calls)
     g_psi        :      3.56s CPU      3.57s WALL (    1671 calls)

     Called by h_psi:
     h_psi:calbec :     94.35s CPU     94.54s WALL (    2022 calls)
     vloc_psi     :    703.19s CPU    706.60s WALL (    2022 calls)
     add_vuspsi   :     87.72s CPU     88.01s WALL (    2022 calls)
     vhpsi        :     11.73s CPU     11.77s WALL (    2022 calls)

     General routines
     calbec       :    137.34s CPU    137.60s WALL (    4730 calls)
     fft          :     13.29s CPU     13.96s WALL (     596 calls)
     ffts         :     66.43s CPU     66.69s WALL (   18888 calls)
     fftw         :    764.12s CPU    767.75s WALL (  552894 calls)
     interpolate  :      1.19s CPU      1.23s WALL (      48 calls)
     davcio       :      0.00s CPU      0.01s WALL (      14 calls)
 
     Parallel routines

     Hubbard U routines
     new_ns       :      4.34s CPU      4.42s WALL (      24 calls)
     vhpsi        :     11.73s CPU     11.77s WALL (    2022 calls)
 
     PWSCF        :  37m29.11s CPU  38m 2.23s WALL

 
   This run was terminated on:  17: 9:16  11Jul2023            

=------------------------------------------------------------------------------=
   JOB DONE.
=------------------------------------------------------------------------------=
