 
             +---------------------------------------------------+
             |                                                   |
             |                   WANNIER90                       |
             |                                                   |
             +---------------------------------------------------+
             |                                                   |
             |        Welcome to the Maximally-Localized         |
             |        Generalized Wannier Functions code         |
             |            http://www.wannier.org                 |
             |                                                   |
             |                                                   |
             |  Wannier90 Developer Group:                       |
             |    Giovanni Pizzi    (EPFL)                       |
             |    Valerio Vitale    (Cambridge)                  |
             |    David Vanderbilt  (Rutgers University)         |
             |    Nicola Marzari    (EPFL)                       |
             |    Ivo Souza         (Universidad del Pais Vasco) |
             |    Arash A. Mostofi  (Imperial College London)    |
             |    Jonathan R. Yates (University of Oxford)       |
             |                                                   |
             |  For the full list of Wannier90 3.x authors,      |
             |  please check the code documentation and the      |
             |  README on the GitHub page of the code            |
             |                                                   |
             |                                                   |
             |  Please cite                                      |
             |                                                   |
             |  [ref] "Wannier90 as a community code:            |
             |        new features and applications",            |
             |        G. Pizzi et al., J. Phys. Cond. Matt. 32,  |
             |        165902 (2020).                             |
             |        http://doi.org/10.1088/1361-648X/ab51ff    |
             |                                                   |
             |  in any publications arising from the use of      |
             |  this code. For the method please cite            |
             |                                                   |
             |  [ref] "Maximally Localized Generalised Wannier   |
             |         Functions for Composite Energy Bands"     |
             |         N. Marzari and D. Vanderbilt              |
             |         Phys. Rev. B 56 12847 (1997)              |
             |                                                   |
             |  [ref] "Maximally Localized Wannier Functions     |
             |         for Entangled Energy Bands"               |
             |         I. Souza, N. Marzari and D. Vanderbilt    |
             |         Phys. Rev. B 65 035109 (2001)             |
             |                                                   |
             |                                                   |
             | Copyright (c) 1996-2020                           |
             |        The Wannier90 Developer Group and          |
             |        individual contributors                    |
             |                                                   |
             |      Release: 3.1.0        5th March    2020      |
             |                                                   |
             | This program is free software; you can            |
             | redistribute it and/or modify it under the terms  |
             | of the GNU General Public License as published by |
             | the Free Software Foundation; either version 2 of |
             | the License, or (at your option) any later version|
             |                                                   |
             | This program is distributed in the hope that it   |
             | will be useful, but WITHOUT ANY WARRANTY; without |
             | even the implied warranty of MERCHANTABILITY or   |
             | FITNESS FOR A PARTICULAR PURPOSE. See the GNU     |
             | General Public License for more details.          |
             |                                                   |
             | You should have received a copy of the GNU General|
             | Public License along with this program; if not,   |
             | write to the Free Software Foundation, Inc.,      |
             | 675 Mass Ave, Cambridge, MA 02139, USA.           |
             |                                                   |
             +---------------------------------------------------+
             |    Execution started on 11Jul2023 at 13:53:56     |
             +---------------------------------------------------+
 
 ******************************************************************************
 * -> Using CODATA 2006 constant values                                       *
 *    (http://physics.nist.gov/cuu/Constants/index.html)                      *
 * -> Using Bohr value from CODATA                                            *
 ******************************************************************************
 

 Running in parallel on  80 CPUs

 
                                    ------
                                    SYSTEM
                                    ------
 
                              Lattice Vectors (Ang)
                    a_1    13.784171   0.000000   0.000000
                    a_2    -6.892085  11.937442   0.000000
                    a_3     0.000000   0.000000  23.631430
 
                   Unit Cell Volume:    3888.49848  (Ang^3)
 
                        Reciprocal-Space Vectors (Ang^-1)
                    b_1     0.455826   0.263171   0.000000
                    b_2     0.000000   0.526343   0.000000
                    b_3     0.000000   0.000000   0.265883
  
 *----------------------------------------------------------------------------*
 |   Site       Fractional Coordinate          Cartesian Coordinate (Ang)     |
 +----------------------------------------------------------------------------+
 | Cr   1   0.33333   0.66667   0.16685   |   -0.00000   7.95829   3.94299    |
 | Nb   1   0.00000   0.00000   0.07170   |    0.00000   0.00000   1.69430    |
 | Nb   2   0.25189   0.00024   0.07201   |    3.47040   0.00287   1.70173    |
 | Nb   3   0.50228   0.00457   0.07084   |    6.89209   0.05454   1.67414    |
 | Nb   4   0.74835   0.00024   0.07201   |   10.31377   0.00287   1.70173    |
 | Nb   5   0.74850   0.25150   0.06828   |    8.58404   3.00230   1.61367    |
 | Nb   6   0.74850   0.49699   0.06828   |    6.89209   5.93284   1.61367    |
 | Nb   7   0.74835   0.74811   0.07201   |    5.15937   8.93055   1.70173    |
 | Nb   8   0.50032   0.75016   0.07859   |    1.72635   8.95500   1.85709    |
 | Nb   9   0.24984   0.75016   0.07859   |   -1.72635   8.95500   1.85709    |
 | Nb  10  -0.00024   0.74811   0.07201   |   -5.15937   8.93055   1.70173    |
 | Nb  11   0.50301   0.25150   0.06828   |    5.20014   3.00230   1.61367    |
 | Nb  12   0.50228   0.49772   0.07084   |    3.49327   5.94145   1.67414    |
 | Nb  13   0.24984   0.49968   0.07859   |   -0.00000   5.96488   1.85709    |
 | Nb  14   0.25189   0.25165   0.07201   |    1.73769   3.00402   1.70173    |
 | Nb  15  -0.00024   0.25165   0.07201   |   -1.73769   3.00402   1.70173    |
 | Nb  16  -0.00457   0.49772   0.07084   |   -3.49327   5.94145   1.67414    |
 | Se   1   0.16721   0.08361   0.00063   |    1.72866   0.99804   0.01486    |
 | Se   2   0.16690   0.08345   0.14290   |    1.72538   0.99615   3.37693    |
 | Se   3   0.41544   0.08143  -0.00156   |    5.16530   0.97207  -0.03681    |
 | Se   4   0.41911   0.08928   0.14188   |    5.16174   1.06572   3.35289    |
 | Se   5   0.66599   0.08143  -0.00156   |    8.61887   0.97207  -0.03681    |
 | Se   6   0.67017   0.08928   0.14188   |    8.62243   1.06572   3.35289    |
 | Se   7   0.91639   0.08361   0.00063   |   12.05551   0.99804   0.01486    |
 | Se   8   0.91655   0.08345   0.14290   |   12.05879   0.99615   3.37693    |
 | Se   9   0.91857   0.33401  -0.00156   |   10.35968   3.98724  -0.03681    |
 | Se  10   0.91072   0.32983   0.14188   |   10.28036   3.93734   3.35289    |
 | Se  11   0.91857   0.58456  -0.00156   |    8.63289   6.97813  -0.03681    |
 | Se  12   0.91072   0.58089   0.14188   |    8.55002   6.93438   3.35289    |
 | Se  13   0.91639   0.83279   0.00063   |    6.89209   9.94136   0.01486    |
 | Se  14   0.91655   0.83310   0.14290   |    6.89209   9.94514   3.37693    |
 | Se  15   0.66220   0.83110   0.00298   |    3.39989   9.92122   0.07043    |
 | Se  16   0.67172   0.83586   0.14547   |    3.49824   9.97800   3.43758    |
 | Se  17   0.41489   0.82979   0.00560   |    0.00000   9.90552   0.13226    |
 | Se  18   0.42825   0.85651   0.14992   |    0.00000  10.22450   3.54287    |
 | Se  19   0.16890   0.83110   0.00298   |   -3.39989   9.92122   0.07043    |
 | Se  20   0.16414   0.83586   0.14547   |   -3.49824   9.97800   3.43758    |
 | Se  21   0.66667   0.33333  -0.00432   |    6.89209   3.97915  -0.10210    |
 | Se  22   0.66667   0.33333   0.14105   |    6.89209   3.97915   3.33317    |
 | Se  23   0.66599   0.58456  -0.00156   |    5.15128   6.97813  -0.03681    |
 | Se  24   0.67017   0.58089   0.14188   |    5.23415   6.93438   3.35289    |
 | Se  25   0.41489   0.58511   0.00560   |    1.68635   6.98468   0.13226    |
 | Se  26   0.42825   0.57175   0.14992   |    1.96259   6.82519   3.54287    |
 | Se  27   0.41544   0.33401  -0.00156   |    3.42449   3.98724  -0.03681    |
 | Se  28   0.41911   0.32983   0.14188   |    3.50381   3.93734   3.35289    |
 | Se  29   0.16890   0.33780   0.00298   |    0.00000   4.03244   0.07043    |
 | Se  30   0.16414   0.32828   0.14547   |    0.00000   3.91888   3.43758    |
 | Se  31   0.17021   0.58511   0.00560   |   -1.68635   6.98468   0.13226    |
 | Se  32   0.14349   0.57175   0.14992   |   -1.96259   6.82519   3.54287    |
 *----------------------------------------------------------------------------*
                                -----------
                                PROJECTIONS
                                -----------
  
 +----------------------------------------------------------------------------+
 |     Frac. Coord.   l mr  r        z-axis               x-axis          Z/a |
 +----------------------------------------------------------------------------+
 |  0.33  0.67  0.17  2  1  1  0.000  0.000  1.000  1.000  0.000  0.000   1.0 |
 |  0.33  0.67  0.17  2  2  1  0.000  0.000  1.000  1.000  0.000  0.000   1.0 |
 |  0.33  0.67  0.17  2  3  1  0.000  0.000  1.000  1.000  0.000  0.000   1.0 |
 |  0.33  0.67  0.17  2  4  1  0.000  0.000  1.000  1.000  0.000  0.000   1.0 |
 |  0.33  0.67  0.17  2  5  1  0.000  0.000  1.000  1.000  0.000  0.000   1.0 |
 |  0.00  0.00  0.07  2  1  1  0.000  0.000  1.000  1.000  0.000  0.000   1.0 |
 |  0.00  0.00  0.07  2  2  1  0.000  0.000  1.000  1.000  0.000  0.000   1.0 |
 |  0.00  0.00  0.07  2  3  1  0.000  0.000  1.000  1.000  0.000  0.000   1.0 |
 |  0.00  0.00  0.07  2  4  1  0.000  0.000  1.000  1.000  0.000  0.000   1.0 |
 |  0.00  0.00  0.07  2  5  1  0.000  0.000  1.000  1.000  0.000  0.000   1.0 |
 |  0.25  0.00  0.07  2  1  1  0.000  0.000  1.000  1.000  0.000  0.000   1.0 |
 |  0.25  0.00  0.07  2  2  1  0.000  0.000  1.000  1.000  0.000  0.000   1.0 |
 |  0.25  0.00  0.07  2  3  1  0.000  0.000  1.000  1.000  0.000  0.000   1.0 |
 |  0.25  0.00  0.07  2  4  1  0.000  0.000  1.000  1.000  0.000  0.000   1.0 |
 |  0.25  0.00  0.07  2  5  1  0.000  0.000  1.000  1.000  0.000  0.000   1.0 |
 |  0.50  0.00  0.07  2  1  1  0.000  0.000  1.000  1.000  0.000  0.000   1.0 |
 |  0.50  0.00  0.07  2  2  1  0.000  0.000  1.000  1.000  0.000  0.000   1.0 |
 |  0.50  0.00  0.07  2  3  1  0.000  0.000  1.000  1.000  0.000  0.000   1.0 |
 |  0.50  0.00  0.07  2  4  1  0.000  0.000  1.000  1.000  0.000  0.000   1.0 |
 |  0.50  0.00  0.07  2  5  1  0.000  0.000  1.000  1.000  0.000  0.000   1.0 |
 |  0.75  0.00  0.07  2  1  1  0.000  0.000  1.000  1.000  0.000  0.000   1.0 |
 |  0.75  0.00  0.07  2  2  1  0.000  0.000  1.000  1.000  0.000  0.000   1.0 |
 |  0.75  0.00  0.07  2  3  1  0.000  0.000  1.000  1.000  0.000  0.000   1.0 |
 |  0.75  0.00  0.07  2  4  1  0.000  0.000  1.000  1.000  0.000  0.000   1.0 |
 |  0.75  0.00  0.07  2  5  1  0.000  0.000  1.000  1.000  0.000  0.000   1.0 |
 |  0.75  0.25  0.07  2  1  1  0.000  0.000  1.000  1.000  0.000  0.000   1.0 |
 |  0.75  0.25  0.07  2  2  1  0.000  0.000  1.000  1.000  0.000  0.000   1.0 |
 |  0.75  0.25  0.07  2  3  1  0.000  0.000  1.000  1.000  0.000  0.000   1.0 |
 |  0.75  0.25  0.07  2  4  1  0.000  0.000  1.000  1.000  0.000  0.000   1.0 |
 |  0.75  0.25  0.07  2  5  1  0.000  0.000  1.000  1.000  0.000  0.000   1.0 |
 |  0.75  0.50  0.07  2  1  1  0.000  0.000  1.000  1.000  0.000  0.000   1.0 |
 |  0.75  0.50  0.07  2  2  1  0.000  0.000  1.000  1.000  0.000  0.000   1.0 |
 |  0.75  0.50  0.07  2  3  1  0.000  0.000  1.000  1.000  0.000  0.000   1.0 |
 |  0.75  0.50  0.07  2  4  1  0.000  0.000  1.000  1.000  0.000  0.000   1.0 |
 |  0.75  0.50  0.07  2  5  1  0.000  0.000  1.000  1.000  0.000  0.000   1.0 |
 |  0.75  0.75  0.07  2  1  1  0.000  0.000  1.000  1.000  0.000  0.000   1.0 |
 |  0.75  0.75  0.07  2  2  1  0.000  0.000  1.000  1.000  0.000  0.000   1.0 |
 |  0.75  0.75  0.07  2  3  1  0.000  0.000  1.000  1.000  0.000  0.000   1.0 |
 |  0.75  0.75  0.07  2  4  1  0.000  0.000  1.000  1.000  0.000  0.000   1.0 |
 |  0.75  0.75  0.07  2  5  1  0.000  0.000  1.000  1.000  0.000  0.000   1.0 |
 |  0.50  0.75  0.08  2  1  1  0.000  0.000  1.000  1.000  0.000  0.000   1.0 |
 |  0.50  0.75  0.08  2  2  1  0.000  0.000  1.000  1.000  0.000  0.000   1.0 |
 |  0.50  0.75  0.08  2  3  1  0.000  0.000  1.000  1.000  0.000  0.000   1.0 |
 |  0.50  0.75  0.08  2  4  1  0.000  0.000  1.000  1.000  0.000  0.000   1.0 |
 |  0.50  0.75  0.08  2  5  1  0.000  0.000  1.000  1.000  0.000  0.000   1.0 |
 |  0.25  0.75  0.08  2  1  1  0.000  0.000  1.000  1.000  0.000  0.000   1.0 |
 |  0.25  0.75  0.08  2  2  1  0.000  0.000  1.000  1.000  0.000  0.000   1.0 |
 |  0.25  0.75  0.08  2  3  1  0.000  0.000  1.000  1.000  0.000  0.000   1.0 |
 |  0.25  0.75  0.08  2  4  1  0.000  0.000  1.000  1.000  0.000  0.000   1.0 |
 |  0.25  0.75  0.08  2  5  1  0.000  0.000  1.000  1.000  0.000  0.000   1.0 |
 | -0.00  0.75  0.07  2  1  1  0.000  0.000  1.000  1.000  0.000  0.000   1.0 |
 | -0.00  0.75  0.07  2  2  1  0.000  0.000  1.000  1.000  0.000  0.000   1.0 |
 | -0.00  0.75  0.07  2  3  1  0.000  0.000  1.000  1.000  0.000  0.000   1.0 |
 | -0.00  0.75  0.07  2  4  1  0.000  0.000  1.000  1.000  0.000  0.000   1.0 |
 | -0.00  0.75  0.07  2  5  1  0.000  0.000  1.000  1.000  0.000  0.000   1.0 |
 |  0.50  0.25  0.07  2  1  1  0.000  0.000  1.000  1.000  0.000  0.000   1.0 |
 |  0.50  0.25  0.07  2  2  1  0.000  0.000  1.000  1.000  0.000  0.000   1.0 |
 |  0.50  0.25  0.07  2  3  1  0.000  0.000  1.000  1.000  0.000  0.000   1.0 |
 |  0.50  0.25  0.07  2  4  1  0.000  0.000  1.000  1.000  0.000  0.000   1.0 |
 |  0.50  0.25  0.07  2  5  1  0.000  0.000  1.000  1.000  0.000  0.000   1.0 |
 |  0.50  0.50  0.07  2  1  1  0.000  0.000  1.000  1.000  0.000  0.000   1.0 |
 |  0.50  0.50  0.07  2  2  1  0.000  0.000  1.000  1.000  0.000  0.000   1.0 |
 |  0.50  0.50  0.07  2  3  1  0.000  0.000  1.000  1.000  0.000  0.000   1.0 |
 |  0.50  0.50  0.07  2  4  1  0.000  0.000  1.000  1.000  0.000  0.000   1.0 |
 |  0.50  0.50  0.07  2  5  1  0.000  0.000  1.000  1.000  0.000  0.000   1.0 |
 |  0.25  0.50  0.08  2  1  1  0.000  0.000  1.000  1.000  0.000  0.000   1.0 |
 |  0.25  0.50  0.08  2  2  1  0.000  0.000  1.000  1.000  0.000  0.000   1.0 |
 |  0.25  0.50  0.08  2  3  1  0.000  0.000  1.000  1.000  0.000  0.000   1.0 |
 |  0.25  0.50  0.08  2  4  1  0.000  0.000  1.000  1.000  0.000  0.000   1.0 |
 |  0.25  0.50  0.08  2  5  1  0.000  0.000  1.000  1.000  0.000  0.000   1.0 |
 |  0.25  0.25  0.07  2  1  1  0.000  0.000  1.000  1.000  0.000  0.000   1.0 |
 |  0.25  0.25  0.07  2  2  1  0.000  0.000  1.000  1.000  0.000  0.000   1.0 |
 |  0.25  0.25  0.07  2  3  1  0.000  0.000  1.000  1.000  0.000  0.000   1.0 |
 |  0.25  0.25  0.07  2  4  1  0.000  0.000  1.000  1.000  0.000  0.000   1.0 |
 |  0.25  0.25  0.07  2  5  1  0.000  0.000  1.000  1.000  0.000  0.000   1.0 |
 | -0.00  0.25  0.07  2  1  1  0.000  0.000  1.000  1.000  0.000  0.000   1.0 |
 | -0.00  0.25  0.07  2  2  1  0.000  0.000  1.000  1.000  0.000  0.000   1.0 |
 | -0.00  0.25  0.07  2  3  1  0.000  0.000  1.000  1.000  0.000  0.000   1.0 |
 | -0.00  0.25  0.07  2  4  1  0.000  0.000  1.000  1.000  0.000  0.000   1.0 |
 | -0.00  0.25  0.07  2  5  1  0.000  0.000  1.000  1.000  0.000  0.000   1.0 |
 | -0.00  0.50  0.07  2  1  1  0.000  0.000  1.000  1.000  0.000  0.000   1.0 |
 | -0.00  0.50  0.07  2  2  1  0.000  0.000  1.000  1.000  0.000  0.000   1.0 |
 | -0.00  0.50  0.07  2  3  1  0.000  0.000  1.000  1.000  0.000  0.000   1.0 |
 | -0.00  0.50  0.07  2  4  1  0.000  0.000  1.000  1.000  0.000  0.000   1.0 |
 | -0.00  0.50  0.07  2  5  1  0.000  0.000  1.000  1.000  0.000  0.000   1.0 |
 |  0.17  0.08  0.00  1  1  1  0.000  0.000  1.000  1.000  0.000  0.000   1.0 |
 |  0.17  0.08  0.00  1  2  1  0.000  0.000  1.000  1.000  0.000  0.000   1.0 |
 |  0.17  0.08  0.00  1  3  1  0.000  0.000  1.000  1.000  0.000  0.000   1.0 |
 |  0.17  0.08  0.14  1  1  1  0.000  0.000  1.000  1.000  0.000  0.000   1.0 |
 |  0.17  0.08  0.14  1  2  1  0.000  0.000  1.000  1.000  0.000  0.000   1.0 |
 |  0.17  0.08  0.14  1  3  1  0.000  0.000  1.000  1.000  0.000  0.000   1.0 |
 |  0.42  0.08 -0.00  1  1  1  0.000  0.000  1.000  1.000  0.000  0.000   1.0 |
 |  0.42  0.08 -0.00  1  2  1  0.000  0.000  1.000  1.000  0.000  0.000   1.0 |
 |  0.42  0.08 -0.00  1  3  1  0.000  0.000  1.000  1.000  0.000  0.000   1.0 |
 |  0.42  0.09  0.14  1  1  1  0.000  0.000  1.000  1.000  0.000  0.000   1.0 |
 |  0.42  0.09  0.14  1  2  1  0.000  0.000  1.000  1.000  0.000  0.000   1.0 |
 |  0.42  0.09  0.14  1  3  1  0.000  0.000  1.000  1.000  0.000  0.000   1.0 |
 |  0.67  0.08 -0.00  1  1  1  0.000  0.000  1.000  1.000  0.000  0.000   1.0 |
 |  0.67  0.08 -0.00  1  2  1  0.000  0.000  1.000  1.000  0.000  0.000   1.0 |
 |  0.67  0.08 -0.00  1  3  1  0.000  0.000  1.000  1.000  0.000  0.000   1.0 |
 |  0.67  0.09  0.14  1  1  1  0.000  0.000  1.000  1.000  0.000  0.000   1.0 |
 |  0.67  0.09  0.14  1  2  1  0.000  0.000  1.000  1.000  0.000  0.000   1.0 |
 |  0.67  0.09  0.14  1  3  1  0.000  0.000  1.000  1.000  0.000  0.000   1.0 |
 |  0.92  0.08  0.00  1  1  1  0.000  0.000  1.000  1.000  0.000  0.000   1.0 |
 |  0.92  0.08  0.00  1  2  1  0.000  0.000  1.000  1.000  0.000  0.000   1.0 |
 |  0.92  0.08  0.00  1  3  1  0.000  0.000  1.000  1.000  0.000  0.000   1.0 |
 |  0.92  0.08  0.14  1  1  1  0.000  0.000  1.000  1.000  0.000  0.000   1.0 |
 |  0.92  0.08  0.14  1  2  1  0.000  0.000  1.000  1.000  0.000  0.000   1.0 |
 |  0.92  0.08  0.14  1  3  1  0.000  0.000  1.000  1.000  0.000  0.000   1.0 |
 |  0.92  0.33 -0.00  1  1  1  0.000  0.000  1.000  1.000  0.000  0.000   1.0 |
 |  0.92  0.33 -0.00  1  2  1  0.000  0.000  1.000  1.000  0.000  0.000   1.0 |
 |  0.92  0.33 -0.00  1  3  1  0.000  0.000  1.000  1.000  0.000  0.000   1.0 |
 |  0.91  0.33  0.14  1  1  1  0.000  0.000  1.000  1.000  0.000  0.000   1.0 |
 |  0.91  0.33  0.14  1  2  1  0.000  0.000  1.000  1.000  0.000  0.000   1.0 |
 |  0.91  0.33  0.14  1  3  1  0.000  0.000  1.000  1.000  0.000  0.000   1.0 |
 |  0.92  0.58 -0.00  1  1  1  0.000  0.000  1.000  1.000  0.000  0.000   1.0 |
 |  0.92  0.58 -0.00  1  2  1  0.000  0.000  1.000  1.000  0.000  0.000   1.0 |
 |  0.92  0.58 -0.00  1  3  1  0.000  0.000  1.000  1.000  0.000  0.000   1.0 |
 |  0.91  0.58  0.14  1  1  1  0.000  0.000  1.000  1.000  0.000  0.000   1.0 |
 |  0.91  0.58  0.14  1  2  1  0.000  0.000  1.000  1.000  0.000  0.000   1.0 |
 |  0.91  0.58  0.14  1  3  1  0.000  0.000  1.000  1.000  0.000  0.000   1.0 |
 |  0.92  0.83  0.00  1  1  1  0.000  0.000  1.000  1.000  0.000  0.000   1.0 |
 |  0.92  0.83  0.00  1  2  1  0.000  0.000  1.000  1.000  0.000  0.000   1.0 |
 |  0.92  0.83  0.00  1  3  1  0.000  0.000  1.000  1.000  0.000  0.000   1.0 |
 |  0.92  0.83  0.14  1  1  1  0.000  0.000  1.000  1.000  0.000  0.000   1.0 |
 |  0.92  0.83  0.14  1  2  1  0.000  0.000  1.000  1.000  0.000  0.000   1.0 |
 |  0.92  0.83  0.14  1  3  1  0.000  0.000  1.000  1.000  0.000  0.000   1.0 |
 |  0.66  0.83  0.00  1  1  1  0.000  0.000  1.000  1.000  0.000  0.000   1.0 |
 |  0.66  0.83  0.00  1  2  1  0.000  0.000  1.000  1.000  0.000  0.000   1.0 |
 |  0.66  0.83  0.00  1  3  1  0.000  0.000  1.000  1.000  0.000  0.000   1.0 |
 |  0.67  0.84  0.15  1  1  1  0.000  0.000  1.000  1.000  0.000  0.000   1.0 |
 |  0.67  0.84  0.15  1  2  1  0.000  0.000  1.000  1.000  0.000  0.000   1.0 |
 |  0.67  0.84  0.15  1  3  1  0.000  0.000  1.000  1.000  0.000  0.000   1.0 |
 |  0.41  0.83  0.01  1  1  1  0.000  0.000  1.000  1.000  0.000  0.000   1.0 |
 |  0.41  0.83  0.01  1  2  1  0.000  0.000  1.000  1.000  0.000  0.000   1.0 |
 |  0.41  0.83  0.01  1  3  1  0.000  0.000  1.000  1.000  0.000  0.000   1.0 |
 |  0.43  0.86  0.15  1  1  1  0.000  0.000  1.000  1.000  0.000  0.000   1.0 |
 |  0.43  0.86  0.15  1  2  1  0.000  0.000  1.000  1.000  0.000  0.000   1.0 |
 |  0.43  0.86  0.15  1  3  1  0.000  0.000  1.000  1.000  0.000  0.000   1.0 |
 |  0.17  0.83  0.00  1  1  1  0.000  0.000  1.000  1.000  0.000  0.000   1.0 |
 |  0.17  0.83  0.00  1  2  1  0.000  0.000  1.000  1.000  0.000  0.000   1.0 |
 |  0.17  0.83  0.00  1  3  1  0.000  0.000  1.000  1.000  0.000  0.000   1.0 |
 |  0.16  0.84  0.15  1  1  1  0.000  0.000  1.000  1.000  0.000  0.000   1.0 |
 |  0.16  0.84  0.15  1  2  1  0.000  0.000  1.000  1.000  0.000  0.000   1.0 |
 |  0.16  0.84  0.15  1  3  1  0.000  0.000  1.000  1.000  0.000  0.000   1.0 |
 |  0.67  0.33 -0.00  1  1  1  0.000  0.000  1.000  1.000  0.000  0.000   1.0 |
 |  0.67  0.33 -0.00  1  2  1  0.000  0.000  1.000  1.000  0.000  0.000   1.0 |
 |  0.67  0.33 -0.00  1  3  1  0.000  0.000  1.000  1.000  0.000  0.000   1.0 |
 |  0.67  0.33  0.14  1  1  1  0.000  0.000  1.000  1.000  0.000  0.000   1.0 |
 |  0.67  0.33  0.14  1  2  1  0.000  0.000  1.000  1.000  0.000  0.000   1.0 |
 |  0.67  0.33  0.14  1  3  1  0.000  0.000  1.000  1.000  0.000  0.000   1.0 |
 |  0.67  0.58 -0.00  1  1  1  0.000  0.000  1.000  1.000  0.000  0.000   1.0 |
 |  0.67  0.58 -0.00  1  2  1  0.000  0.000  1.000  1.000  0.000  0.000   1.0 |
 |  0.67  0.58 -0.00  1  3  1  0.000  0.000  1.000  1.000  0.000  0.000   1.0 |
 |  0.67  0.58  0.14  1  1  1  0.000  0.000  1.000  1.000  0.000  0.000   1.0 |
 |  0.67  0.58  0.14  1  2  1  0.000  0.000  1.000  1.000  0.000  0.000   1.0 |
 |  0.67  0.58  0.14  1  3  1  0.000  0.000  1.000  1.000  0.000  0.000   1.0 |
 |  0.41  0.59  0.01  1  1  1  0.000  0.000  1.000  1.000  0.000  0.000   1.0 |
 |  0.41  0.59  0.01  1  2  1  0.000  0.000  1.000  1.000  0.000  0.000   1.0 |
 |  0.41  0.59  0.01  1  3  1  0.000  0.000  1.000  1.000  0.000  0.000   1.0 |
 |  0.43  0.57  0.15  1  1  1  0.000  0.000  1.000  1.000  0.000  0.000   1.0 |
 |  0.43  0.57  0.15  1  2  1  0.000  0.000  1.000  1.000  0.000  0.000   1.0 |
 |  0.43  0.57  0.15  1  3  1  0.000  0.000  1.000  1.000  0.000  0.000   1.0 |
 |  0.42  0.33 -0.00  1  1  1  0.000  0.000  1.000  1.000  0.000  0.000   1.0 |
 |  0.42  0.33 -0.00  1  2  1  0.000  0.000  1.000  1.000  0.000  0.000   1.0 |
 |  0.42  0.33 -0.00  1  3  1  0.000  0.000  1.000  1.000  0.000  0.000   1.0 |
 |  0.42  0.33  0.14  1  1  1  0.000  0.000  1.000  1.000  0.000  0.000   1.0 |
 |  0.42  0.33  0.14  1  2  1  0.000  0.000  1.000  1.000  0.000  0.000   1.0 |
 |  0.42  0.33  0.14  1  3  1  0.000  0.000  1.000  1.000  0.000  0.000   1.0 |
 |  0.17  0.34  0.00  1  1  1  0.000  0.000  1.000  1.000  0.000  0.000   1.0 |
 |  0.17  0.34  0.00  1  2  1  0.000  0.000  1.000  1.000  0.000  0.000   1.0 |
 |  0.17  0.34  0.00  1  3  1  0.000  0.000  1.000  1.000  0.000  0.000   1.0 |
 |  0.16  0.33  0.15  1  1  1  0.000  0.000  1.000  1.000  0.000  0.000   1.0 |
 |  0.16  0.33  0.15  1  2  1  0.000  0.000  1.000  1.000  0.000  0.000   1.0 |
 |  0.16  0.33  0.15  1  3  1  0.000  0.000  1.000  1.000  0.000  0.000   1.0 |
 |  0.17  0.59  0.01  1  1  1  0.000  0.000  1.000  1.000  0.000  0.000   1.0 |
 |  0.17  0.59  0.01  1  2  1  0.000  0.000  1.000  1.000  0.000  0.000   1.0 |
 |  0.17  0.59  0.01  1  3  1  0.000  0.000  1.000  1.000  0.000  0.000   1.0 |
 |  0.14  0.57  0.15  1  1  1  0.000  0.000  1.000  1.000  0.000  0.000   1.0 |
 |  0.14  0.57  0.15  1  2  1  0.000  0.000  1.000  1.000  0.000  0.000   1.0 |
 |  0.14  0.57  0.15  1  3  1  0.000  0.000  1.000  1.000  0.000  0.000   1.0 |
 +----------------------------------------------------------------------------+
  
                                ------------
                                K-POINT GRID
                                ------------
  
             Grid size =  4 x  4 x  1      Total points =   16
  
 *----------------------------------------------------------------------------*
 | k-point      Fractional Coordinate        Cartesian Coordinate (Ang^-1)    |
 +----------------------------------------------------------------------------+
 |     1    0.00000   0.00000   0.00000   |    0.00000   0.00000   0.00000    |
 |     2    0.00000   0.25000   0.00000   |    0.00000   0.13159   0.00000    |
 |     3    0.00000   0.50000   0.00000   |    0.00000   0.26317   0.00000    |
 |     4    0.00000   0.75000   0.00000   |    0.00000   0.39476   0.00000    |
 |     5    0.25000   0.00000   0.00000   |    0.11396   0.06579   0.00000    |
 |     6    0.25000   0.25000   0.00000   |    0.11396   0.19738   0.00000    |
 |     7    0.25000   0.50000   0.00000   |    0.11396   0.32896   0.00000    |
 |     8    0.25000   0.75000   0.00000   |    0.11396   0.46055   0.00000    |
 |     9    0.50000   0.00000   0.00000   |    0.22791   0.13159   0.00000    |
 |    10    0.50000   0.25000   0.00000   |    0.22791   0.26317   0.00000    |
 |    11    0.50000   0.50000   0.00000   |    0.22791   0.39476   0.00000    |
 |    12    0.50000   0.75000   0.00000   |    0.22791   0.52634   0.00000    |
 |    13    0.75000   0.00000   0.00000   |    0.34187   0.19738   0.00000    |
 |    14    0.75000   0.25000   0.00000   |    0.34187   0.32896   0.00000    |
 |    15    0.75000   0.50000   0.00000   |    0.34187   0.46055   0.00000    |
 |    16    0.75000   0.75000   0.00000   |    0.34187   0.59214   0.00000    |
 *----------------------------------------------------------------------------*
  
  
 *---------------------------------- MAIN ------------------------------------*
 |  Number of Wannier Functions               :               181             |
 |  Number of Objective Wannier Functions     :               181             |
 |  Number of input Bloch states              :               450             |
 |  Output verbosity (1=low, 5=high)          :                 3             |
 |  Timing Level (1=low, 5=high)              :                 1             |
 |  Optimisation (0=memory, 3=speed)          :                 3             |
 |  Length Unit                               :               Ang             |
 |  Post-processing setup (write *.nnkp)      :                 F             |
 |  Using Gamma-only branch of algorithms     :                 F             |
 |  CP code post-processing                   :                 F             |
 |  Wavefunction (UNK) file-type              :       unformatted             |
 |  Wavefunction spin channel                 :                up             |
 *----------------------------------------------------------------------------*
 *------------------------------- WANNIERISE ---------------------------------*
 |  Total number of iterations                :               500             |
 |  Number of CG steps before reset           :                 5             |
 |  Trial step length for line search         :             2.000             |
 |  Convergence tolerence                     :         0.100E-09             |
 |  Convergence window                        :                -1             |
 |  Iterations between writing output         :                50             |
 |  Iterations between backing up to disk     :               100             |
 |  Write r^2_nm to file                      :                 F             |
 |  Write xyz WF centres to file              :                 T             |
 |  Write on-site energies <0n|H|0n> to file  :                 F             |
 |  Use guiding centre to control phases      :                 T             |
 |  Use phases for initial projections        :                 F             |
 |  Iterations before starting guiding centres:                 0             |
 |  Iterations between using guiding centres  :                 1             |
 |  Perform selective localization            :                 F             |
 |  Use constrains in selective localization  :                 F             |
 |  Value of the Lagrange multiplier          :         0.100E+01             |
 *----------------------------------------------------------------------------*
 *------------------------------- DISENTANGLE --------------------------------*
 |  Using band disentanglement                :                 T             |
 |  Total number of iterations                :              4000             |
 |  Mixing ratio                              :             0.500             |
 |  Convergence tolerence                     :         1.000E-10             |
 |  Convergence window                        :                 3             |
 *----------------------------------------------------------------------------*
 *-------------------------------- PLOTTING ----------------------------------*
 |  Plotting Wannier functions                :                 F             |
 |   Size of supercell for plotting           :     2x    2x    2             |
 |   Plotting mode (molecule or crystal)      :           crystal             |
 |   Plotting format                          :          xcrysden             |
 |   Plot radius                              :             3.500             |
 |   Plot scale                               :             1.000             |
 *----------------------------------------------------------------------------*
 |  Plotting Fermi surface                    :                 F             |
 |   Number of plotting points (along b_1)    :                50             |
 |   Plotting format                          :          xcrysden             |
 *----------------------------------------------------------------------------*
 |  Plotting interpolated bandstructure       :                 T             |
 |   Number of K-path sections                :                 3             |
 |   Divisions along first K-path section     :               100             |
 |   Output format                            :           gnuplot             |
 |   Output mode                              :               s-k             |
 *----------------------------------------------------------------------------*
 |   K-space path sections:                                                   |
 |    From: Γ      0.000  0.000  0.000     To: M       0.500  0.000  0.000   |
 |    From: M       0.500  0.000  0.000     To: K       0.333  0.333  0.000   |
 |    From: K       0.333  0.333  0.000     To: Γ      0.000  0.000  0.000   |
 *----------------------------------------------------------------------------*
 |  Plotting Hamiltonian in WF basis          :                 T             |
 *----------------------------------------------------------------------------*
 |  Writing data for Van der Waals post-proc  :                 F             |
 *----------------------------------------------------------------------------*
 *------------------------------- TRANSPORT ----------------------------------*
 |  Transport mode                            :              bulk             |
 |   Hamiltonian from external files          :                 F             |
 |   System extended in                       :              none             |
 |   Centre of the unit cell to which WF are translated (fract. coords):      |
 |                                       0.000000,    0.000000,    0.000000   |
 |  Fermi energy (eV)                         :             0.000             |
 *----------------------------------------------------------------------------*
 Time to read parameters        0.034 (sec)

 *---------------------------------- K-MESH ----------------------------------*
 +----------------------------------------------------------------------------+
 |                    Distance to Nearest-Neighbour Shells                    |
 |                    ------------------------------------                    |
 |          Shell             Distance (Ang^-1)          Multiplicity         |
 |          -----             -----------------          ------------         |
 |             1                   0.131586                      6            |
 |             2                   0.227913                      6            |
 |             3                   0.263171                      6            |
 |             4                   0.265883                      2            |
 |             5                   0.296662                     12            |
 |             6                   0.348143                     12            |
 |             7                   0.350197                     12            |
 |             8                   0.374103                     12            |
 |             9                   0.394757                      6            |
 |            10                   0.438061                     24            |
 |            11                   0.455826                      6            |
 |            12                   0.474439                     12            |
 |            13                   0.475948                     12            |
 |            14                   0.526343                      6            |
 |            15                   0.527704                     12            |
 |            16                   0.531765                      2            |
 |            17                   0.543862                     24            |
 |            18                   0.547804                     12            |
 |            19                   0.573569                     12            |
 |            20                   0.578549                     12            |
 |            21                   0.589686                     12            |
 |            22                   0.593324                     12            |
 |            23                   0.603001                     12            |
 |            24                   0.632198                     24            |
 |            25                   0.635592                     24            |
 |            26                   0.657928                      6            |
 |            27                   0.659018                     24            |
 |            28                   0.662274                     12            |
 |            29                   0.683739                      6            |
 |            30                   0.696286                     12            |
 |            31                   0.700394                     12            |
 |            32                   0.709622                     12            |
 |            33                   0.712647                     24            |
 |            34                   0.732638                     12            |
 |            35                   0.733616                     12            |
 |            36                   0.745324                     24            |
 +----------------------------------------------------------------------------+
 | The b-vectors are chosen automatically                                     |
 | Shell:  1 Multiplicity:  6                                                 |
 | b-vector 1 :        0.000000    0.131586    0.000000      (Ang^-1)         |
 | b-vector 2 :        0.113957    0.065793    0.000000      (Ang^-1)         |
 | b-vector 3 :        0.000000   -0.131586    0.000000      (Ang^-1)         |
 | b-vector 4 :        0.113957   -0.065793    0.000000      (Ang^-1)         |
 | b-vector 5 :       -0.113957   -0.065793    0.000000      (Ang^-1)         |
 | b-vector 6 :       -0.113957    0.065793    0.000000      (Ang^-1)         |
 | Shell:  1 w_b   19.2513662      (Ang^2)                                    |
 | B1 condition is not satisfied: Adding another shell                        |
 | Shell:  2 Multiplicity:  6                                                 |
 | b-vector 1 :        0.113957    0.197379    0.000000      (Ang^-1)         |
 | b-vector 2 :        0.113957   -0.197379    0.000000      (Ang^-1)         |
 | b-vector 3 :        0.227913   -0.000000    0.000000      (Ang^-1)         |
 | b-vector 4 :       -0.227913    0.000000    0.000000      (Ang^-1)         |
 | b-vector 5 :       -0.113957    0.197379    0.000000      (Ang^-1)         |
 | b-vector 6 :       -0.113957   -0.197379    0.000000      (Ang^-1)         |
 | SVD found small singular value, Rejecting this shell and trying the next   |
 | Shell:  3 Multiplicity:  6                                                 |
 | b-vector 1 :        0.000000    0.263171    0.000000      (Ang^-1)         |
 | b-vector 2 :        0.227913    0.131586    0.000000      (Ang^-1)         |
 | b-vector 3 :        0.000000   -0.263171    0.000000      (Ang^-1)         |
 | b-vector 4 :        0.227913   -0.131586    0.000000      (Ang^-1)         |
 | b-vector 5 :       -0.227913   -0.131586    0.000000      (Ang^-1)         |
 | b-vector 6 :       -0.227913    0.131586    0.000000      (Ang^-1)         |
 | This shell is linearly dependent on existing shells: Trying next shell     |
 | Shell:  4 Multiplicity:  2                                                 |
 | b-vector 1 :        0.000000    0.000000    0.265883      (Ang^-1)         |
 | b-vector 2 :        0.000000    0.000000   -0.265883      (Ang^-1)         |
 | Shell:  1 w_b   19.2513662      (Ang^2)                                    |
 | Shell:  2 w_b    7.0727819      (Ang^2)                                    |
 | The following shells are used:   1,  4                                     |
 +----------------------------------------------------------------------------+
 |                        Shell   # Nearest-Neighbours                        |
 |                        -----   --------------------                        |
 |                          1               6                                 |
 |                          4               2                                 |
 +----------------------------------------------------------------------------+
 | Completeness relation is fully satisfied [Eq. (B1), PRB 56, 12847 (1997)]  |
 +----------------------------------------------------------------------------+
 |                  b_k Vectors (Ang^-1) and Weights (Ang^2)                  |
 |                  ----------------------------------------                  |
 |            No.         b_k(x)      b_k(y)      b_k(z)        w_b           |
 |            ---        --------------------------------     --------        |
 |             1         0.000000    0.131586    0.000000    19.251366        |
 |             2         0.113957    0.065793    0.000000    19.251366        |
 |             3         0.000000   -0.131586    0.000000    19.251366        |
 |             4         0.113957   -0.065793    0.000000    19.251366        |
 |             5        -0.113957   -0.065793    0.000000    19.251366        |
 |             6        -0.113957    0.065793    0.000000    19.251366        |
 |             7         0.000000    0.000000    0.265883     7.072782        |
 |             8         0.000000    0.000000   -0.265883     7.072782        |
 +----------------------------------------------------------------------------+
 |                           b_k Directions (Ang^-1)                          |
 |                           -----------------------                          |
 |            No.           x           y           z                         |
 |            ---        --------------------------------                     |
 |             1         0.000000    0.131586    0.000000                     |
 |             2         0.113957    0.065793    0.000000                     |
 |             3         0.113957   -0.065793    0.000000                     |
 |             4         0.000000    0.000000    0.265883                     |
 +----------------------------------------------------------------------------+
  
 Time to get kmesh              0.022 (sec)
 *============================================================================*
 |                              MEMORY ESTIMATE                               |
 |         Maximum RAM allocated during each phase of the calculation         |
 *============================================================================*
 |                        Disentanglement          550.06 Mb                  |
 |                            Wannierise:          183.41 Mb                  |
 |                                                                            |
 |   N.B. by setting optimisation=0 memory usage will be reduced to:          |
 |                        Disentanglement          550.06 Mb                  |
 |                            Wannierise:          119.42 Mb                  |
 |   However, this will result in more i/o and slow down the calculation      |
 |                          plot_wannier:          183.41 Mb                  |
 *----------------------------------------------------------------------------*
  
 Starting a new Wannier90 calculation ...


 Reading overlaps from 1Fe_centreconf.up.mmn    :  Created on 11Jul2023 at 13: 6:32

 Reading projections from 1Fe_centreconf.up.amn :  Created on 11Jul2023 at 12:47:52

 Time to read overlaps         62.677 (sec)

 *------------------------------- DISENTANGLE --------------------------------*
 +----------------------------------------------------------------------------+
 |                              Energy  Windows                               |
 |                              ---------------                               |
 |                   Outer:  -30.00000  to   30.00000  (eV)                   |
 |                   Inner:   -6.00000  to    2.50000  (eV)                   |
 +----------------------------------------------------------------------------+
 |                        K-points with Frozen States                         |
 |                        ---------------------------                         |
 |     1     2     3     4     5     6     7     8     9    10    11    12    |
 |    13    14    15    16                                                    |
 +----------------------------------------------------------------------------+
   Number of target bands to extract:  181
 +----------------------------------------------------------------------------+
 |                                  Windows                                   |
 |                                  -------                                   |
 |               K-point      Ndimwin     Ndimfroz    Nfirstwin               |
 |               ----------------------------------------------               |
 |                   1          382          157          69                  |
 |                   2          382          158          69                  |
 |                   3          382          158          69                  |
 |                   4          382          158          69                  |
 |                   5          382          158          69                  |
 |                   6          382          159          69                  |
 |                   7          382          159          69                  |
 |                   8          382          158          69                  |
 |                   9          382          158          69                  |
 |                  10          382          159          69                  |
 |                  11          382          158          69                  |
 |                  12          382          159          69                  |
 |                  13          382          158          69                  |
 |                  14          382          158          69                  |
 |                  15          382          159          69                  |
 |                  16          382          159          69                  |
 +----------------------------------------------------------------------------+

                   Unitarised projection of Wannier functions                  
                   ------------------------------------------                  
   A_mn = <psi_m|g_n> --> S = A.A^+ --> U = S^-1/2.A
   In dis_project... done
   Using an inner window (linner = T)
   In dis_proj_froz...
 K-point   1 ndimwin: 382 we want the 24 leading eigenvector(s) of QPQ
  lambda(  1)= -0.000000000000
  lambda(  2)= -0.000000000000
  lambda(  3)= -0.000000000000
  lambda(  4)= -0.000000000000
  lambda(  5)= -0.000000000000
  lambda(  6)= -0.000000000000
  lambda(  7)= -0.000000000000
  lambda(  8)= -0.000000000000
  lambda(  9)= -0.000000000000
  lambda( 10)= -0.000000000000
  lambda( 11)= -0.000000000000
  lambda( 12)= -0.000000000000
  lambda( 13)= -0.000000000000
  lambda( 14)= -0.000000000000
  lambda( 15)= -0.000000000000
  lambda( 16)= -0.000000000000
  lambda( 17)= -0.000000000000
  lambda( 18)= -0.000000000000
  lambda( 19)= -0.000000000000
  lambda( 20)= -0.000000000000
  lambda( 21)= -0.000000000000
  lambda( 22)= -0.000000000000
  lambda( 23)= -0.000000000000
  lambda( 24)= -0.000000000000
  lambda( 25)= -0.000000000000
  lambda( 26)= -0.000000000000
  lambda( 27)= -0.000000000000
  lambda( 28)= -0.000000000000
  lambda( 29)= -0.000000000000
  lambda( 30)= -0.000000000000
  lambda( 31)= -0.000000000000
  lambda( 32)= -0.000000000000
  lambda( 33)= -0.000000000000
  lambda( 34)= -0.000000000000
  lambda( 35)= -0.000000000000
  lambda( 36)= -0.000000000000
  lambda( 37)= -0.000000000000
  lambda( 38)= -0.000000000000
  lambda( 39)= -0.000000000000
  lambda( 40)= -0.000000000000
  lambda( 41)= -0.000000000000
  lambda( 42)= -0.000000000000
  lambda( 43)= -0.000000000000
  lambda( 44)= -0.000000000000
  lambda( 45)= -0.000000000000
  lambda( 46)= -0.000000000000
  lambda( 47)= -0.000000000000
  lambda( 48)= -0.000000000000
  lambda( 49)= -0.000000000000
  lambda( 50)= -0.000000000000
  lambda( 51)= -0.000000000000
  lambda( 52)= -0.000000000000
  lambda( 53)= -0.000000000000
  lambda( 54)= -0.000000000000
  lambda( 55)= -0.000000000000
  lambda( 56)= -0.000000000000
  lambda( 57)= -0.000000000000
  lambda( 58)= -0.000000000000
  lambda( 59)= -0.000000000000
  lambda( 60)= -0.000000000000
  lambda( 61)= -0.000000000000
  lambda( 62)= -0.000000000000
  lambda( 63)= -0.000000000000
  lambda( 64)= -0.000000000000
  lambda( 65)= -0.000000000000
  lambda( 66)= -0.000000000000
  lambda( 67)= -0.000000000000
  lambda( 68)= -0.000000000000
  lambda( 69)= -0.000000000000
  lambda( 70)= -0.000000000000
  lambda( 71)= -0.000000000000
  lambda( 72)= -0.000000000000
  lambda( 73)= -0.000000000000
  lambda( 74)= -0.000000000000
  lambda( 75)= -0.000000000000
  lambda( 76)= -0.000000000000
  lambda( 77)= -0.000000000000
  lambda( 78)= -0.000000000000
  lambda( 79)= -0.000000000000
  lambda( 80)= -0.000000000000
  lambda( 81)= -0.000000000000
  lambda( 82)= -0.000000000000
  lambda( 83)= -0.000000000000
  lambda( 84)= -0.000000000000
  lambda( 85)= -0.000000000000
  lambda( 86)= -0.000000000000
  lambda( 87)= -0.000000000000
  lambda( 88)= -0.000000000000
  lambda( 89)= -0.000000000000
  lambda( 90)= -0.000000000000
  lambda( 91)= -0.000000000000
  lambda( 92)= -0.000000000000
  lambda( 93)= -0.000000000000
  lambda( 94)= -0.000000000000
  lambda( 95)= -0.000000000000
  lambda( 96)= -0.000000000000
  lambda( 97)= -0.000000000000
  lambda( 98)= -0.000000000000
  lambda( 99)= -0.000000000000
  lambda(100)= -0.000000000000
  lambda(101)= -0.000000000000
  lambda(102)= -0.000000000000
  lambda(103)=  0.000000000000
  lambda(104)=  0.000000000000
  lambda(105)=  0.000000000000
  lambda(106)=  0.000000000000
  lambda(107)=  0.000000000000
  lambda(108)=  0.000000000000
  lambda(109)=  0.000000000000
  lambda(110)=  0.000000000000
  lambda(111)=  0.000000000000
  lambda(112)=  0.000000000000
  lambda(113)=  0.000000000000
  lambda(114)=  0.000000000000
  lambda(115)=  0.000000000000
  lambda(116)=  0.000000000000
  lambda(117)=  0.000000000000
  lambda(118)=  0.000000000000
  lambda(119)=  0.000000000000
  lambda(120)=  0.000000000000
  lambda(121)=  0.000000000000
  lambda(122)=  0.000000000000
  lambda(123)=  0.000000000000
  lambda(124)=  0.000000000000
  lambda(125)=  0.000000000000
  lambda(126)=  0.000000000000
  lambda(127)=  0.000000000000
  lambda(128)=  0.000000000000
  lambda(129)=  0.000000000000
  lambda(130)=  0.000000000000
  lambda(131)=  0.000000000000
  lambda(132)=  0.000000000000
  lambda(133)=  0.000000000000
  lambda(134)=  0.000000000000
  lambda(135)=  0.000000000000
  lambda(136)=  0.000000000000
  lambda(137)=  0.000000000000
  lambda(138)=  0.000000000000
  lambda(139)=  0.000000000000
  lambda(140)=  0.000000000000
  lambda(141)=  0.000000000000
  lambda(142)=  0.000000000000
  lambda(143)=  0.000000000000
  lambda(144)=  0.000000000000
  lambda(145)=  0.000000000000
  lambda(146)=  0.000000000000
  lambda(147)=  0.000000000000
  lambda(148)=  0.000000000000
  lambda(149)=  0.000000000000
  lambda(150)=  0.000000000000
  lambda(151)=  0.000000000000
  lambda(152)=  0.000000000000
  lambda(153)=  0.000000000000
  lambda(154)=  0.000000000000
  lambda(155)=  0.000000000000
  lambda(156)=  0.000000000000
  lambda(157)=  0.000000000000
  lambda(158)=  0.000000000000
  lambda(159)=  0.000000000000
  lambda(160)=  0.000000000000
  lambda(161)=  0.000000000000
  lambda(162)=  0.000000000000
  lambda(163)=  0.000000000000
  lambda(164)=  0.000000000000
  lambda(165)=  0.000000000000
  lambda(166)=  0.000000000000
  lambda(167)=  0.000000000000
  lambda(168)=  0.000000000000
  lambda(169)=  0.000000000000
  lambda(170)=  0.000000000000
  lambda(171)=  0.000000000000
  lambda(172)=  0.000000000000
  lambda(173)=  0.000000000000
  lambda(174)=  0.000000000000
  lambda(175)=  0.000000000000
  lambda(176)=  0.000000000000
  lambda(177)=  0.000000000000
  lambda(178)=  0.000000000000
  lambda(179)=  0.000000000000
  lambda(180)=  0.000000000000
  lambda(181)=  0.000000000000
  lambda(182)=  0.000000000000
  lambda(183)=  0.000000000000
  lambda(184)=  0.000000000000
  lambda(185)=  0.000000000000
  lambda(186)=  0.000000000000
  lambda(187)=  0.000000000000
  lambda(188)=  0.000000000000
  lambda(189)=  0.000000000000
  lambda(190)=  0.000000000000
  lambda(191)=  0.000000000000
  lambda(192)=  0.000000000000
  lambda(193)=  0.000000000000
  lambda(194)=  0.000000000000
  lambda(195)=  0.000000000000
  lambda(196)=  0.000000000000
  lambda(197)=  0.000000000000
  lambda(198)=  0.000000000000
  lambda(199)=  0.000000000000
  lambda(200)=  0.000000000000
  lambda(201)=  0.000000000000
  lambda(202)=  0.000000000000
  lambda(203)=  0.000000000000
  lambda(204)=  0.000000000000
  lambda(205)=  0.000000000000
  lambda(206)=  0.000000000000
  lambda(207)=  0.000000000000
  lambda(208)=  0.000000000002
  lambda(209)=  0.000000014979
  lambda(210)=  0.000000021012
  lambda(211)=  0.000000097327
  lambda(212)=  0.000000123387
  lambda(213)=  0.000000199361
  lambda(214)=  0.000000355418
  lambda(215)=  0.000000799449
  lambda(216)=  0.000000800060
  lambda(217)=  0.000000904892
  lambda(218)=  0.000001552251
  lambda(219)=  0.000001567095
  lambda(220)=  0.000001699259
  lambda(221)=  0.000002687070
  lambda(222)=  0.000006446193
  lambda(223)=  0.000007517751
  lambda(224)=  0.000007528612
  lambda(225)=  0.000023842457
  lambda(226)=  0.000024536025
  lambda(227)=  0.000030945737
  lambda(228)=  0.000052356960
  lambda(229)=  0.000053058403
  lambda(230)=  0.000123787502
  lambda(231)=  0.000138466915
  lambda(232)=  0.000268420911
  lambda(233)=  0.000276372949
  lambda(234)=  0.000367465231
  lambda(235)=  0.000371407710
  lambda(236)=  0.000371546893
  lambda(237)=  0.000374664120
  lambda(238)=  0.000465126495
  lambda(239)=  0.000534384154
  lambda(240)=  0.000584230488
  lambda(241)=  0.000634554559
  lambda(242)=  0.000735700495
  lambda(243)=  0.000785700212
  lambda(244)=  0.000804259487
  lambda(245)=  0.000873227009
  lambda(246)=  0.001421008850
  lambda(247)=  0.001501191269
  lambda(248)=  0.001582062135
  lambda(249)=  0.001840281821
  lambda(250)=  0.002077971409
  lambda(251)=  0.002151629761
  lambda(252)=  0.002234151193
  lambda(253)=  0.003219634597
  lambda(254)=  0.003220426364
  lambda(255)=  0.003245658459
  lambda(256)=  0.003834493851
  lambda(257)=  0.003873603938
  lambda(258)=  0.004225052586
  lambda(259)=  0.005711910673
  lambda(260)=  0.006052775749
  lambda(261)=  0.006867761665
  lambda(262)=  0.007368104396
  lambda(263)=  0.007873810851
  lambda(264)=  0.008227062240
  lambda(265)=  0.008574443343
  lambda(266)=  0.013404283693
  lambda(267)=  0.014180018957
  lambda(268)=  0.014353375228
  lambda(269)=  0.015381386865
  lambda(270)=  0.015609257493
  lambda(271)=  0.016297308799
  lambda(272)=  0.016364762177
  lambda(273)=  0.016689374578
  lambda(274)=  0.018219477992
  lambda(275)=  0.018293144719
  lambda(276)=  0.019616865552
  lambda(277)=  0.020049440289
  lambda(278)=  0.020218377250
  lambda(279)=  0.020499925506
  lambda(280)=  0.020988121001
  lambda(281)=  0.021335495595
  lambda(282)=  0.022616985820
  lambda(283)=  0.026259882737
  lambda(284)=  0.026358228091
  lambda(285)=  0.026382293901
  lambda(286)=  0.031491870746
  lambda(287)=  0.032597740097
  lambda(288)=  0.033257497079
  lambda(289)=  0.033829601146
  lambda(290)=  0.033981689322
  lambda(291)=  0.035119174397
  lambda(292)=  0.037443227485
  lambda(293)=  0.038721910075
  lambda(294)=  0.047242048205
  lambda(295)=  0.047630359925
  lambda(296)=  0.048326558220
  lambda(297)=  0.051434793756
  lambda(298)=  0.051603215261
  lambda(299)=  0.052281545338
  lambda(300)=  0.052346516011
  lambda(301)=  0.055297229899
  lambda(302)=  0.063319202246
  lambda(303)=  0.063379561853
  lambda(304)=  0.063426549346
  lambda(305)=  0.064408234574
  lambda(306)=  0.068515594954
  lambda(307)=  0.069274937172
  lambda(308)=  0.069730649219
  lambda(309)=  0.070399613357
  lambda(310)=  0.072916952852
  lambda(311)=  0.072937928785
  lambda(312)=  0.077399434041
  lambda(313)=  0.081238962991
  lambda(314)=  0.087949271499
  lambda(315)=  0.088974435825
  lambda(316)=  0.090161013761
  lambda(317)=  0.112596087039
  lambda(318)=  0.112674257706
  lambda(319)=  0.116516408643
  lambda(320)=  0.121408359468
  lambda(321)=  0.121490675135
  lambda(322)=  0.122073682389
  lambda(323)=  0.124846477013
  lambda(324)=  0.133364572715
  lambda(325)=  0.133461589240
  lambda(326)=  0.134177726276
  lambda(327)=  0.135272423643
  lambda(328)=  0.135285640069
  lambda(329)=  0.138370402291
  lambda(330)=  0.140073343982
  lambda(331)=  0.140183025242
  lambda(332)=  0.142347601054
  lambda(333)=  0.142916041128
  lambda(334)=  0.153565542648
  lambda(335)=  0.153778998368
  lambda(336)=  0.156816723095
  lambda(337)=  0.168016511670
  lambda(338)=  0.172902990799
  lambda(339)=  0.173289356019
  lambda(340)=  0.173323511600
  lambda(341)=  0.173651748774
  lambda(342)=  0.175365210175
  lambda(343)=  0.176769154455
  lambda(344)=  0.176847532210
  lambda(345)=  0.180090447621
  lambda(346)=  0.181704056727
  lambda(347)=  0.182323876138
  lambda(348)=  0.186194339829
  lambda(349)=  0.194059462858
  lambda(350)=  0.194140517349
  lambda(351)=  0.195603656636
  lambda(352)=  0.199221801325
  lambda(353)=  0.202920864046
  lambda(354)=  0.225109491370
  lambda(355)=  0.284954175053
  lambda(356)=  0.285057385712
  lambda(357)=  0.313403039008
  lambda(358)=  0.508200581743
  lambda(359)=  1.000000000000
  lambda(360)=  1.000000000000
  lambda(361)=  1.000000000000
  lambda(362)=  1.000000000000
  lambda(363)=  1.000000000000
  lambda(364)=  1.000000000000
  lambda(365)=  1.000000000000
  lambda(366)=  1.000000000000
  lambda(367)=  1.000000000000
  lambda(368)=  1.000000000000
  lambda(369)=  1.000000000000
  lambda(370)=  1.000000000000
  lambda(371)=  1.000000000000
  lambda(372)=  1.000000000000
  lambda(373)=  1.000000000000
  lambda(374)=  1.000000000000
  lambda(375)=  1.000000000000
  lambda(376)=  1.000000000000
  lambda(377)=  1.000000000000
  lambda(378)=  1.000000000000
  lambda(379)=  1.000000000000
  lambda(380)=  1.000000000000
  lambda(381)=  1.000000000000
  lambda(382)=  1.000000000000

 K-point   2 ndimwin: 382 we want the 23 leading eigenvector(s) of QPQ
  lambda(  1)= -0.000000000000
  lambda(  2)= -0.000000000000
  lambda(  3)= -0.000000000000
  lambda(  4)= -0.000000000000
  lambda(  5)= -0.000000000000
  lambda(  6)= -0.000000000000
  lambda(  7)= -0.000000000000
  lambda(  8)= -0.000000000000
  lambda(  9)= -0.000000000000
  lambda( 10)= -0.000000000000
  lambda( 11)= -0.000000000000
  lambda( 12)= -0.000000000000
  lambda( 13)= -0.000000000000
  lambda( 14)= -0.000000000000
  lambda( 15)= -0.000000000000
  lambda( 16)= -0.000000000000
  lambda( 17)= -0.000000000000
  lambda( 18)= -0.000000000000
  lambda( 19)= -0.000000000000
  lambda( 20)= -0.000000000000
  lambda( 21)= -0.000000000000
  lambda( 22)= -0.000000000000
  lambda( 23)= -0.000000000000
  lambda( 24)= -0.000000000000
  lambda( 25)= -0.000000000000
  lambda( 26)= -0.000000000000
  lambda( 27)= -0.000000000000
  lambda( 28)= -0.000000000000
  lambda( 29)= -0.000000000000
  lambda( 30)= -0.000000000000
  lambda( 31)= -0.000000000000
  lambda( 32)= -0.000000000000
  lambda( 33)= -0.000000000000
  lambda( 34)= -0.000000000000
  lambda( 35)= -0.000000000000
  lambda( 36)= -0.000000000000
  lambda( 37)= -0.000000000000
  lambda( 38)= -0.000000000000
  lambda( 39)= -0.000000000000
  lambda( 40)= -0.000000000000
  lambda( 41)= -0.000000000000
  lambda( 42)= -0.000000000000
  lambda( 43)= -0.000000000000
  lambda( 44)= -0.000000000000
  lambda( 45)= -0.000000000000
  lambda( 46)= -0.000000000000
  lambda( 47)= -0.000000000000
  lambda( 48)= -0.000000000000
  lambda( 49)= -0.000000000000
  lambda( 50)= -0.000000000000
  lambda( 51)= -0.000000000000
  lambda( 52)= -0.000000000000
  lambda( 53)= -0.000000000000
  lambda( 54)= -0.000000000000
  lambda( 55)= -0.000000000000
  lambda( 56)= -0.000000000000
  lambda( 57)= -0.000000000000
  lambda( 58)= -0.000000000000
  lambda( 59)= -0.000000000000
  lambda( 60)= -0.000000000000
  lambda( 61)= -0.000000000000
  lambda( 62)= -0.000000000000
  lambda( 63)= -0.000000000000
  lambda( 64)= -0.000000000000
  lambda( 65)= -0.000000000000
  lambda( 66)= -0.000000000000
  lambda( 67)= -0.000000000000
  lambda( 68)= -0.000000000000
  lambda( 69)= -0.000000000000
  lambda( 70)= -0.000000000000
  lambda( 71)= -0.000000000000
  lambda( 72)= -0.000000000000
  lambda( 73)= -0.000000000000
  lambda( 74)= -0.000000000000
  lambda( 75)= -0.000000000000
  lambda( 76)= -0.000000000000
  lambda( 77)= -0.000000000000
  lambda( 78)= -0.000000000000
  lambda( 79)= -0.000000000000
  lambda( 80)= -0.000000000000
  lambda( 81)= -0.000000000000
  lambda( 82)= -0.000000000000
  lambda( 83)= -0.000000000000
  lambda( 84)= -0.000000000000
  lambda( 85)= -0.000000000000
  lambda( 86)= -0.000000000000
  lambda( 87)= -0.000000000000
  lambda( 88)= -0.000000000000
  lambda( 89)= -0.000000000000
  lambda( 90)= -0.000000000000
  lambda( 91)= -0.000000000000
  lambda( 92)= -0.000000000000
  lambda( 93)= -0.000000000000
  lambda( 94)= -0.000000000000
  lambda( 95)= -0.000000000000
  lambda( 96)= -0.000000000000
  lambda( 97)= -0.000000000000
  lambda( 98)= -0.000000000000
  lambda( 99)= -0.000000000000
  lambda(100)= -0.000000000000
  lambda(101)=  0.000000000000
  lambda(102)=  0.000000000000
  lambda(103)=  0.000000000000
  lambda(104)=  0.000000000000
  lambda(105)=  0.000000000000
  lambda(106)=  0.000000000000
  lambda(107)=  0.000000000000
  lambda(108)=  0.000000000000
  lambda(109)=  0.000000000000
  lambda(110)=  0.000000000000
  lambda(111)=  0.000000000000
  lambda(112)=  0.000000000000
  lambda(113)=  0.000000000000
  lambda(114)=  0.000000000000
  lambda(115)=  0.000000000000
  lambda(116)=  0.000000000000
  lambda(117)=  0.000000000000
  lambda(118)=  0.000000000000
  lambda(119)=  0.000000000000
  lambda(120)=  0.000000000000
  lambda(121)=  0.000000000000
  lambda(122)=  0.000000000000
  lambda(123)=  0.000000000000
  lambda(124)=  0.000000000000
  lambda(125)=  0.000000000000
  lambda(126)=  0.000000000000
  lambda(127)=  0.000000000000
  lambda(128)=  0.000000000000
  lambda(129)=  0.000000000000
  lambda(130)=  0.000000000000
  lambda(131)=  0.000000000000
  lambda(132)=  0.000000000000
  lambda(133)=  0.000000000000
  lambda(134)=  0.000000000000
  lambda(135)=  0.000000000000
  lambda(136)=  0.000000000000
  lambda(137)=  0.000000000000
  lambda(138)=  0.000000000000
  lambda(139)=  0.000000000000
  lambda(140)=  0.000000000000
  lambda(141)=  0.000000000000
  lambda(142)=  0.000000000000
  lambda(143)=  0.000000000000
  lambda(144)=  0.000000000000
  lambda(145)=  0.000000000000
  lambda(146)=  0.000000000000
  lambda(147)=  0.000000000000
  lambda(148)=  0.000000000000
  lambda(149)=  0.000000000000
  lambda(150)=  0.000000000000
  lambda(151)=  0.000000000000
  lambda(152)=  0.000000000000
  lambda(153)=  0.000000000000
  lambda(154)=  0.000000000000
  lambda(155)=  0.000000000000
  lambda(156)=  0.000000000000
  lambda(157)=  0.000000000000
  lambda(158)=  0.000000000000
  lambda(159)=  0.000000000000
  lambda(160)=  0.000000000000
  lambda(161)=  0.000000000000
  lambda(162)=  0.000000000000
  lambda(163)=  0.000000000000
  lambda(164)=  0.000000000000
  lambda(165)=  0.000000000000
  lambda(166)=  0.000000000000
  lambda(167)=  0.000000000000
  lambda(168)=  0.000000000000
  lambda(169)=  0.000000000000
  lambda(170)=  0.000000000000
  lambda(171)=  0.000000000000
  lambda(172)=  0.000000000000
  lambda(173)=  0.000000000000
  lambda(174)=  0.000000000000
  lambda(175)=  0.000000000000
  lambda(176)=  0.000000000000
  lambda(177)=  0.000000000000
  lambda(178)=  0.000000000000
  lambda(179)=  0.000000000000
  lambda(180)=  0.000000000000
  lambda(181)=  0.000000000000
  lambda(182)=  0.000000000000
  lambda(183)=  0.000000000000
  lambda(184)=  0.000000000000
  lambda(185)=  0.000000000000
  lambda(186)=  0.000000000000
  lambda(187)=  0.000000000000
  lambda(188)=  0.000000000000
  lambda(189)=  0.000000000000
  lambda(190)=  0.000000000000
  lambda(191)=  0.000000000000
  lambda(192)=  0.000000000000
  lambda(193)=  0.000000000000
  lambda(194)=  0.000000000000
  lambda(195)=  0.000000000000
  lambda(196)=  0.000000000000
  lambda(197)=  0.000000000000
  lambda(198)=  0.000000000000
  lambda(199)=  0.000000000000
  lambda(200)=  0.000000000000
  lambda(201)=  0.000000000000
  lambda(202)=  0.000000002126
  lambda(203)=  0.000000003846
  lambda(204)=  0.000000013132
  lambda(205)=  0.000000026206
  lambda(206)=  0.000000060174
  lambda(207)=  0.000000214629
  lambda(208)=  0.000000507708
  lambda(209)=  0.000001356930
  lambda(210)=  0.000001907331
  lambda(211)=  0.000002660965
  lambda(212)=  0.000004425028
  lambda(213)=  0.000011262229
  lambda(214)=  0.000016303718
  lambda(215)=  0.000018190967
  lambda(216)=  0.000021846118
  lambda(217)=  0.000026048369
  lambda(218)=  0.000035742524
  lambda(219)=  0.000054416045
  lambda(220)=  0.000067787080
  lambda(221)=  0.000083815056
  lambda(222)=  0.000108551740
  lambda(223)=  0.000147424255
  lambda(224)=  0.000151363676
  lambda(225)=  0.000220462846
  lambda(226)=  0.000261727548
  lambda(227)=  0.000271031595
  lambda(228)=  0.000322122518
  lambda(229)=  0.000393280785
  lambda(230)=  0.000407109351
  lambda(231)=  0.000430987847
  lambda(232)=  0.000482963637
  lambda(233)=  0.000538966400
  lambda(234)=  0.000623615593
  lambda(235)=  0.000732077712
  lambda(236)=  0.000810753613
  lambda(237)=  0.000816573041
  lambda(238)=  0.000934382169
  lambda(239)=  0.001174571458
  lambda(240)=  0.001317918293
  lambda(241)=  0.001336727787
  lambda(242)=  0.001549961311
  lambda(243)=  0.001851750019
  lambda(244)=  0.001895663945
  lambda(245)=  0.002025347981
  lambda(246)=  0.002267151617
  lambda(247)=  0.002309473800
  lambda(248)=  0.003148058779
  lambda(249)=  0.003485806013
  lambda(250)=  0.003676549082
  lambda(251)=  0.003777361036
  lambda(252)=  0.005508073635
  lambda(253)=  0.005562745943
  lambda(254)=  0.006334924355
  lambda(255)=  0.007066675539
  lambda(256)=  0.007287500171
  lambda(257)=  0.008130906052
  lambda(258)=  0.008775241421
  lambda(259)=  0.009295517947
  lambda(260)=  0.009757164634
  lambda(261)=  0.011068782465
  lambda(262)=  0.011444444297
  lambda(263)=  0.012633306090
  lambda(264)=  0.012670730466
  lambda(265)=  0.013949738904
  lambda(266)=  0.013983023817
  lambda(267)=  0.014890758098
  lambda(268)=  0.014973233534
  lambda(269)=  0.015249507143
  lambda(270)=  0.015956413479
  lambda(271)=  0.016383476579
  lambda(272)=  0.017209537575
  lambda(273)=  0.017853483898
  lambda(274)=  0.019190989940
  lambda(275)=  0.019584843692
  lambda(276)=  0.020066791603
  lambda(277)=  0.020242711026
  lambda(278)=  0.023145606082
  lambda(279)=  0.024344344803
  lambda(280)=  0.024467725844
  lambda(281)=  0.026984379770
  lambda(282)=  0.027827587559
  lambda(283)=  0.028591350495
  lambda(284)=  0.030031893411
  lambda(285)=  0.031468198965
  lambda(286)=  0.033490896876
  lambda(287)=  0.033965575087
  lambda(288)=  0.037090917261
  lambda(289)=  0.038206772617
  lambda(290)=  0.039625583869
  lambda(291)=  0.042143864610
  lambda(292)=  0.044523802634
  lambda(293)=  0.044598181529
  lambda(294)=  0.045670703111
  lambda(295)=  0.047572797831
  lambda(296)=  0.048231136514
  lambda(297)=  0.049717179159
  lambda(298)=  0.050712954131
  lambda(299)=  0.052583021438
  lambda(300)=  0.055425030681
  lambda(301)=  0.056613573004
  lambda(302)=  0.057287783681
  lambda(303)=  0.058101298342
  lambda(304)=  0.060305642917
  lambda(305)=  0.062698399305
  lambda(306)=  0.064245420275
  lambda(307)=  0.065468047462
  lambda(308)=  0.067770774521
  lambda(309)=  0.069785016299
  lambda(310)=  0.070218757716
  lambda(311)=  0.073916662608
  lambda(312)=  0.075560395787
  lambda(313)=  0.075780394178
  lambda(314)=  0.078590344928
  lambda(315)=  0.080243721780
  lambda(316)=  0.080715213376
  lambda(317)=  0.084876105688
  lambda(318)=  0.106282804666
  lambda(319)=  0.106836958565
  lambda(320)=  0.110354006824
  lambda(321)=  0.111043561847
  lambda(322)=  0.115066758984
  lambda(323)=  0.115138700507
  lambda(324)=  0.121411380142
  lambda(325)=  0.122197217203
  lambda(326)=  0.126041187710
  lambda(327)=  0.128035367003
  lambda(328)=  0.132033906944
  lambda(329)=  0.134097939934
  lambda(330)=  0.138293856602
  lambda(331)=  0.140650116514
  lambda(332)=  0.141653462856
  lambda(333)=  0.147025244291
  lambda(334)=  0.149234835561
  lambda(335)=  0.150982090609
  lambda(336)=  0.153200635447
  lambda(337)=  0.154434197120
  lambda(338)=  0.156551601009
  lambda(339)=  0.162171654553
  lambda(340)=  0.163932577498
  lambda(341)=  0.164392583262
  lambda(342)=  0.169362496453
  lambda(343)=  0.175516356255
  lambda(344)=  0.176996586121
  lambda(345)=  0.179616565393
  lambda(346)=  0.182022814479
  lambda(347)=  0.183171274132
  lambda(348)=  0.185952797949
  lambda(349)=  0.187495651983
  lambda(350)=  0.188697384324
  lambda(351)=  0.193835306253
  lambda(352)=  0.195571446188
  lambda(353)=  0.198684589005
  lambda(354)=  0.216297093905
  lambda(355)=  0.232520507362
  lambda(356)=  0.264888278580
  lambda(357)=  0.272652278350
  lambda(358)=  0.304950723865
  lambda(359)=  0.509738373334
  lambda(360)=  1.000000000000
  lambda(361)=  1.000000000000
  lambda(362)=  1.000000000000
  lambda(363)=  1.000000000000
  lambda(364)=  1.000000000000
  lambda(365)=  1.000000000000
  lambda(366)=  1.000000000000
  lambda(367)=  1.000000000000
  lambda(368)=  1.000000000000
  lambda(369)=  1.000000000000
  lambda(370)=  1.000000000000
  lambda(371)=  1.000000000000
  lambda(372)=  1.000000000000
  lambda(373)=  1.000000000000
  lambda(374)=  1.000000000000
  lambda(375)=  1.000000000000
  lambda(376)=  1.000000000000
  lambda(377)=  1.000000000000
  lambda(378)=  1.000000000000
  lambda(379)=  1.000000000000
  lambda(380)=  1.000000000000
  lambda(381)=  1.000000000000
  lambda(382)=  1.000000000000

 K-point   3 ndimwin: 382 we want the 23 leading eigenvector(s) of QPQ
  lambda(  1)= -0.000000000000
  lambda(  2)= -0.000000000000
  lambda(  3)= -0.000000000000
  lambda(  4)= -0.000000000000
  lambda(  5)= -0.000000000000
  lambda(  6)= -0.000000000000
  lambda(  7)= -0.000000000000
  lambda(  8)= -0.000000000000
  lambda(  9)= -0.000000000000
  lambda( 10)= -0.000000000000
  lambda( 11)= -0.000000000000
  lambda( 12)= -0.000000000000
  lambda( 13)= -0.000000000000
  lambda( 14)= -0.000000000000
  lambda( 15)= -0.000000000000
  lambda( 16)= -0.000000000000
  lambda( 17)= -0.000000000000
  lambda( 18)= -0.000000000000
  lambda( 19)= -0.000000000000
  lambda( 20)= -0.000000000000
  lambda( 21)= -0.000000000000
  lambda( 22)= -0.000000000000
  lambda( 23)= -0.000000000000
  lambda( 24)= -0.000000000000
  lambda( 25)= -0.000000000000
  lambda( 26)= -0.000000000000
  lambda( 27)= -0.000000000000
  lambda( 28)= -0.000000000000
  lambda( 29)= -0.000000000000
  lambda( 30)= -0.000000000000
  lambda( 31)= -0.000000000000
  lambda( 32)= -0.000000000000
  lambda( 33)= -0.000000000000
  lambda( 34)= -0.000000000000
  lambda( 35)= -0.000000000000
  lambda( 36)= -0.000000000000
  lambda( 37)= -0.000000000000
  lambda( 38)= -0.000000000000
  lambda( 39)= -0.000000000000
  lambda( 40)= -0.000000000000
  lambda( 41)= -0.000000000000
  lambda( 42)= -0.000000000000
  lambda( 43)= -0.000000000000
  lambda( 44)= -0.000000000000
  lambda( 45)= -0.000000000000
  lambda( 46)= -0.000000000000
  lambda( 47)= -0.000000000000
  lambda( 48)= -0.000000000000
  lambda( 49)= -0.000000000000
  lambda( 50)= -0.000000000000
  lambda( 51)= -0.000000000000
  lambda( 52)= -0.000000000000
  lambda( 53)= -0.000000000000
  lambda( 54)= -0.000000000000
  lambda( 55)= -0.000000000000
  lambda( 56)= -0.000000000000
  lambda( 57)= -0.000000000000
  lambda( 58)= -0.000000000000
  lambda( 59)= -0.000000000000
  lambda( 60)= -0.000000000000
  lambda( 61)= -0.000000000000
  lambda( 62)= -0.000000000000
  lambda( 63)= -0.000000000000
  lambda( 64)= -0.000000000000
  lambda( 65)= -0.000000000000
  lambda( 66)= -0.000000000000
  lambda( 67)= -0.000000000000
  lambda( 68)= -0.000000000000
  lambda( 69)= -0.000000000000
  lambda( 70)= -0.000000000000
  lambda( 71)= -0.000000000000
  lambda( 72)= -0.000000000000
  lambda( 73)= -0.000000000000
  lambda( 74)= -0.000000000000
  lambda( 75)= -0.000000000000
  lambda( 76)= -0.000000000000
  lambda( 77)= -0.000000000000
  lambda( 78)= -0.000000000000
  lambda( 79)= -0.000000000000
  lambda( 80)= -0.000000000000
  lambda( 81)= -0.000000000000
  lambda( 82)= -0.000000000000
  lambda( 83)= -0.000000000000
  lambda( 84)= -0.000000000000
  lambda( 85)= -0.000000000000
  lambda( 86)= -0.000000000000
  lambda( 87)= -0.000000000000
  lambda( 88)= -0.000000000000
  lambda( 89)= -0.000000000000
  lambda( 90)= -0.000000000000
  lambda( 91)= -0.000000000000
  lambda( 92)= -0.000000000000
  lambda( 93)= -0.000000000000
  lambda( 94)= -0.000000000000
  lambda( 95)= -0.000000000000
  lambda( 96)= -0.000000000000
  lambda( 97)= -0.000000000000
  lambda( 98)= -0.000000000000
  lambda( 99)= -0.000000000000
  lambda(100)=  0.000000000000
  lambda(101)=  0.000000000000
  lambda(102)=  0.000000000000
  lambda(103)=  0.000000000000
  lambda(104)=  0.000000000000
  lambda(105)=  0.000000000000
  lambda(106)=  0.000000000000
  lambda(107)=  0.000000000000
  lambda(108)=  0.000000000000
  lambda(109)=  0.000000000000
  lambda(110)=  0.000000000000
  lambda(111)=  0.000000000000
  lambda(112)=  0.000000000000
  lambda(113)=  0.000000000000
  lambda(114)=  0.000000000000
  lambda(115)=  0.000000000000
  lambda(116)=  0.000000000000
  lambda(117)=  0.000000000000
  lambda(118)=  0.000000000000
  lambda(119)=  0.000000000000
  lambda(120)=  0.000000000000
  lambda(121)=  0.000000000000
  lambda(122)=  0.000000000000
  lambda(123)=  0.000000000000
  lambda(124)=  0.000000000000
  lambda(125)=  0.000000000000
  lambda(126)=  0.000000000000
  lambda(127)=  0.000000000000
  lambda(128)=  0.000000000000
  lambda(129)=  0.000000000000
  lambda(130)=  0.000000000000
  lambda(131)=  0.000000000000
  lambda(132)=  0.000000000000
  lambda(133)=  0.000000000000
  lambda(134)=  0.000000000000
  lambda(135)=  0.000000000000
  lambda(136)=  0.000000000000
  lambda(137)=  0.000000000000
  lambda(138)=  0.000000000000
  lambda(139)=  0.000000000000
  lambda(140)=  0.000000000000
  lambda(141)=  0.000000000000
  lambda(142)=  0.000000000000
  lambda(143)=  0.000000000000
  lambda(144)=  0.000000000000
  lambda(145)=  0.000000000000
  lambda(146)=  0.000000000000
  lambda(147)=  0.000000000000
  lambda(148)=  0.000000000000
  lambda(149)=  0.000000000000
  lambda(150)=  0.000000000000
  lambda(151)=  0.000000000000
  lambda(152)=  0.000000000000
  lambda(153)=  0.000000000000
  lambda(154)=  0.000000000000
  lambda(155)=  0.000000000000
  lambda(156)=  0.000000000000
  lambda(157)=  0.000000000000
  lambda(158)=  0.000000000000
  lambda(159)=  0.000000000000
  lambda(160)=  0.000000000000
  lambda(161)=  0.000000000000
  lambda(162)=  0.000000000000
  lambda(163)=  0.000000000000
  lambda(164)=  0.000000000000
  lambda(165)=  0.000000000000
  lambda(166)=  0.000000000000
  lambda(167)=  0.000000000000
  lambda(168)=  0.000000000000
  lambda(169)=  0.000000000000
  lambda(170)=  0.000000000000
  lambda(171)=  0.000000000000
  lambda(172)=  0.000000000000
  lambda(173)=  0.000000000000
  lambda(174)=  0.000000000000
  lambda(175)=  0.000000000000
  lambda(176)=  0.000000000000
  lambda(177)=  0.000000000000
  lambda(178)=  0.000000000000
  lambda(179)=  0.000000000000
  lambda(180)=  0.000000000000
  lambda(181)=  0.000000000000
  lambda(182)=  0.000000000000
  lambda(183)=  0.000000000000
  lambda(184)=  0.000000000000
  lambda(185)=  0.000000000000
  lambda(186)=  0.000000000000
  lambda(187)=  0.000000000000
  lambda(188)=  0.000000000000
  lambda(189)=  0.000000000000
  lambda(190)=  0.000000000000
  lambda(191)=  0.000000000000
  lambda(192)=  0.000000000000
  lambda(193)=  0.000000000000
  lambda(194)=  0.000000000000
  lambda(195)=  0.000000000000
  lambda(196)=  0.000000000000
  lambda(197)=  0.000000000000
  lambda(198)=  0.000000000000
  lambda(199)=  0.000000000000
  lambda(200)=  0.000000000000
  lambda(201)=  0.000000000000
  lambda(202)=  0.000000004047
  lambda(203)=  0.000000009094
  lambda(204)=  0.000000027014
  lambda(205)=  0.000000028574
  lambda(206)=  0.000000078088
  lambda(207)=  0.000000313650
  lambda(208)=  0.000000508978
  lambda(209)=  0.000000840549
  lambda(210)=  0.000002219397
  lambda(211)=  0.000006608399
  lambda(212)=  0.000017323122
  lambda(213)=  0.000022324202
  lambda(214)=  0.000025526716
  lambda(215)=  0.000041619901
  lambda(216)=  0.000041992109
  lambda(217)=  0.000060368813
  lambda(218)=  0.000081357438
  lambda(219)=  0.000085152178
  lambda(220)=  0.000104966162
  lambda(221)=  0.000107912709
  lambda(222)=  0.000132348766
  lambda(223)=  0.000167330925
  lambda(224)=  0.000168776353
  lambda(225)=  0.000204130395
  lambda(226)=  0.000225244721
  lambda(227)=  0.000298273419
  lambda(228)=  0.000359348250
  lambda(229)=  0.000373015308
  lambda(230)=  0.000468644055
  lambda(231)=  0.000495979821
  lambda(232)=  0.000516034251
  lambda(233)=  0.000628741774
  lambda(234)=  0.000701392805
  lambda(235)=  0.001003989530
  lambda(236)=  0.001489400494
  lambda(237)=  0.001643179984
  lambda(238)=  0.001899010147
  lambda(239)=  0.002010355401
  lambda(240)=  0.002278612363
  lambda(241)=  0.002307229583
  lambda(242)=  0.002448529563
  lambda(243)=  0.002510144151
  lambda(244)=  0.002758841644
  lambda(245)=  0.003198165726
  lambda(246)=  0.004046438187
  lambda(247)=  0.004413678128
  lambda(248)=  0.004668238018
  lambda(249)=  0.004824349816
  lambda(250)=  0.005962581727
  lambda(251)=  0.006417298862
  lambda(252)=  0.006622661019
  lambda(253)=  0.006757807465
  lambda(254)=  0.007758474276
  lambda(255)=  0.007797503400
  lambda(256)=  0.009270307399
  lambda(257)=  0.009725376400
  lambda(258)=  0.010096616075
  lambda(259)=  0.010718174891
  lambda(260)=  0.011352605441
  lambda(261)=  0.011837203015
  lambda(262)=  0.012765584509
  lambda(263)=  0.013066617584
  lambda(264)=  0.013575421362
  lambda(265)=  0.014898213698
  lambda(266)=  0.015074363751
  lambda(267)=  0.016361382679
  lambda(268)=  0.017054173527
  lambda(269)=  0.018705139050
  lambda(270)=  0.019139872269
  lambda(271)=  0.019161403213
  lambda(272)=  0.019728934381
  lambda(273)=  0.021199179194
  lambda(274)=  0.023185199518
  lambda(275)=  0.023317966779
  lambda(276)=  0.024767998999
  lambda(277)=  0.026586629200
  lambda(278)=  0.028132465689
  lambda(279)=  0.029242058835
  lambda(280)=  0.030838805196
  lambda(281)=  0.031943833598
  lambda(282)=  0.032898645556
  lambda(283)=  0.033367997134
  lambda(284)=  0.034782320135
  lambda(285)=  0.037565193787
  lambda(286)=  0.038723248921
  lambda(287)=  0.040557351595
  lambda(288)=  0.041136040854
  lambda(289)=  0.041644587590
  lambda(290)=  0.042768996624
  lambda(291)=  0.043255669978
  lambda(292)=  0.043435627953
  lambda(293)=  0.044022944818
  lambda(294)=  0.045472343572
  lambda(295)=  0.047791990945
  lambda(296)=  0.048364597048
  lambda(297)=  0.050075165177
  lambda(298)=  0.051054528273
  lambda(299)=  0.052591194345
  lambda(300)=  0.055094307773
  lambda(301)=  0.056573668574
  lambda(302)=  0.058308711817
  lambda(303)=  0.060460659841
  lambda(304)=  0.060812489120
  lambda(305)=  0.063646328584
  lambda(306)=  0.064788015930
  lambda(307)=  0.065174897928
  lambda(308)=  0.068424280343
  lambda(309)=  0.071174162325
  lambda(310)=  0.074058200247
  lambda(311)=  0.078555756365
  lambda(312)=  0.081106159891
  lambda(313)=  0.085666395712
  lambda(314)=  0.088167390554
  lambda(315)=  0.089619820549
  lambda(316)=  0.093710858860
  lambda(317)=  0.095651077979
  lambda(318)=  0.096374969268
  lambda(319)=  0.099336159535
  lambda(320)=  0.100170603675
  lambda(321)=  0.103145142801
  lambda(322)=  0.104686078021
  lambda(323)=  0.109239820628
  lambda(324)=  0.111381642041
  lambda(325)=  0.113036565825
  lambda(326)=  0.114989595950
  lambda(327)=  0.121972332942
  lambda(328)=  0.126006548823
  lambda(329)=  0.127279401952
  lambda(330)=  0.128354144146
  lambda(331)=  0.130943862186
[...]
  WF centre and spread   95  (  5.169833,  1.052208,  3.435722 )     2.18384089
  WF centre and spread   96  (  5.166402,  1.041581,  3.313711 )     2.10650325
  WF centre and spread   97  (  5.159628,  1.077709,  3.315175 )     2.11294561
  WF centre and spread   98  (  8.614656,  0.972221, -0.120583 )     2.16185231
  WF centre and spread   99  (  8.612720,  0.951918,  0.012367 )     2.12588406
  WF centre and spread  100  (  8.618579,  0.992799,  0.004441 )     2.06788254
  WF centre and spread  101  (  8.614340,  1.052209,  3.435718 )     2.18385095
  WF centre and spread  102  (  8.617764,  1.041579,  3.313713 )     2.10647519
  WF centre and spread  103  (  8.624541,  1.077710,  3.315175 )     2.11294643
  WF centre and spread  104  ( 12.053491,  0.996767, -0.063135 )     2.17493890
  WF centre and spread  105  ( 12.058680,  0.978247,  0.062238 )     2.06827916
  WF centre and spread  106  ( 12.054871,  1.018189,  0.059788 )     2.06540026
  WF centre and spread  107  ( 12.058243,  0.994043,  3.454044 )     2.19165988
  WF centre and spread  108  ( 12.057656,  0.977210,  3.332305 )     2.10272917
  WF centre and spread  109  ( 12.057468,  1.018289,  3.332300 )     2.09552211
  WF centre and spread  110  ( 10.354590,  3.987271, -0.120546 )     2.16213185
  WF centre and spread  111  ( 10.362836,  3.973399,  0.009374 )     2.09168410
  WF centre and spread  112  ( 10.355201,  4.008974,  0.007417 )     2.10285906
  WF centre and spread  113  ( 10.285105,  3.946919,  3.435493 )     2.18414483
  WF centre and spread  114  ( 10.291947,  3.921184,  3.312213 )     2.08656099
  WF centre and spread  115  ( 10.280256,  3.965048,  3.316942 )     2.13280074
  WF centre and spread  116  (  8.633137,  6.970412, -0.120640 )     2.16024290
  WF centre and spread  117  (  8.629190,  6.957001,  0.003554 )     2.07315015
  WF centre and spread  118  (  8.640655,  6.996640,  0.013370 )     2.12241916
  WF centre and spread  119  (  8.563588,  6.929999,  3.435661 )     2.18388067
  WF centre and spread  120  (  8.555772,  6.916035,  3.317549 )     2.13494128
  WF centre and spread  121  (  8.557783,  6.959906,  3.311474 )     2.08427116
  WF centre and spread  122  (  6.892086,  9.936815, -0.063164 )     2.17424142
  WF centre and spread  123  (  6.892083,  9.920553,  0.058629 )     2.06377611
  WF centre and spread  124  (  6.892082,  9.966668,  0.063427 )     2.07038566
  WF centre and spread  125  (  6.892088,  9.942004,  3.454091 )     2.19250406
  WF centre and spread  126  (  6.892089,  9.923978,  3.332262 )     2.09107934
  WF centre and spread  127  (  6.892088,  9.965334,  3.332328 )     2.10648155
  WF centre and spread  128  (  3.389594,  9.912803,  0.000909 )     2.20202357
  WF centre and spread  129  (  3.402767,  9.898150,  0.118160 )     2.09157250
  WF centre and spread  130  (  3.399141,  9.947509,  0.120048 )     2.08654577
  WF centre and spread  131  (  3.486188,  9.968147,  3.525742 )     2.18789582
  WF centre and spread  132  (  3.477820,  9.950315,  3.395201 )     2.09348404
  WF centre and spread  133  (  3.492252,  9.992798,  3.397053 )     2.08248564
  WF centre and spread  134  ( -0.000001,  9.903795,  0.074090 )     2.18776418
  WF centre and spread  135  (  0.000003,  9.889480,  0.175396 )     2.08515741
  WF centre and spread  136  ( -0.000001,  9.934021,  0.190303 )     2.08676483
  WF centre and spread  137  ( -0.000004, 10.303511,  3.635125 )     2.06946426
  WF centre and spread  138  (  0.000033, 10.218366,  3.531080 )     1.97244949
  WF centre and spread  139  ( -0.000014,  9.698979,  3.852575 )     3.22541193
  WF centre and spread  140  ( -3.389596,  9.912802,  0.000911 )     2.20202804
  WF centre and spread  141  ( -3.402770,  9.898146,  0.118159 )     2.09155187
  WF centre and spread  142  ( -3.399139,  9.947512,  0.120048 )     2.08653789
  WF centre and spread  143  ( -3.486187,  9.968146,  3.525744 )     2.18789384
  WF centre and spread  144  ( -3.477832,  9.950310,  3.395202 )     2.09344366
  WF centre and spread  145  ( -3.492252,  9.992799,  3.397055 )     2.08249203
  WF centre and spread  146  (  6.892085,  3.976643, -0.185970 )     2.12619218
  WF centre and spread  147  (  6.892085,  3.963771, -0.063105 )     2.05768046
  WF centre and spread  148  (  6.892085,  3.996376, -0.063123 )     2.05796930
  WF centre and spread  149  (  6.892086,  3.976960,  3.419151 )     2.13252121
  WF centre and spread  150  (  6.892084,  3.967880,  3.298069 )     2.06698369
  WF centre and spread  151  (  6.892086,  3.991968,  3.298081 )     2.06725895
  WF centre and spread  152  (  5.151034,  6.970413, -0.120638 )     2.16024666
  WF centre and spread  153  (  5.154984,  6.956999,  0.003552 )     2.07314285
  WF centre and spread  154  (  5.143522,  6.996641,  0.013370 )     2.12242206
  WF centre and spread  155  (  5.220581,  6.929994,  3.435662 )     2.18388226
  WF centre and spread  156  (  5.228402,  6.916031,  3.317548 )     2.13493932
  WF centre and spread  157  (  5.226381,  6.959910,  3.311472 )     2.08426797
  WF centre and spread  158  (  1.686614,  6.982091,  0.073881 )     2.18749629
  WF centre and spread  159  (  1.691800,  6.961398,  0.186665 )     2.08710376
  WF centre and spread  160  (  1.690635,  7.003997,  0.179089 )     2.08608937
  WF centre and spread  161  (  1.510107,  7.088037,  3.852192 )     3.22322716
  WF centre and spread  162  (  2.043188,  6.841109,  3.617134 )     2.05674039
  WF centre and spread  163  (  1.942672,  6.772392,  3.549496 )     1.99037901
  WF centre and spread  164  (  3.429581,  3.987269, -0.120541 )     2.16213948
  WF centre and spread  165  (  3.421342,  3.973399,  0.009373 )     2.09167842
  WF centre and spread  166  (  3.428971,  4.008976,  0.007416 )     2.10285156
  WF centre and spread  167  (  3.499069,  3.946924,  3.435497 )     2.18413725
  WF centre and spread  168  (  3.492218,  3.921183,  3.312212 )     2.08656726
  WF centre and spread  169  (  3.503916,  3.965048,  3.316939 )     2.13281566
  WF centre and spread  170  ( -0.000002,  4.041566,  0.000876 )     2.20185947
  WF centre and spread  171  (  0.000003,  4.010495,  0.121041 )     2.08371896
  WF centre and spread  172  ( -0.000004,  4.053903,  0.117183 )     2.09468574
  WF centre and spread  173  (  0.000000,  3.930539,  3.525356 )     2.18745582
  WF centre and spread  174  ( -0.000003,  3.902424,  3.398058 )     2.07608440
  WF centre and spread  175  ( -0.000006,  3.967526,  3.394592 )     2.09892276
  WF centre and spread  176  ( -1.686615,  6.982091,  0.073891 )     2.18752870
  WF centre and spread  177  ( -1.691799,  6.961399,  0.186665 )     2.08710381
  WF centre and spread  178  ( -1.690633,  7.003995,  0.179091 )     2.08609831
  WF centre and spread  179  ( -1.510118,  7.088049,  3.852174 )     3.22327795
  WF centre and spread  180  ( -2.043178,  6.841101,  3.617137 )     2.05678342
  WF centre and spread  181  ( -1.942675,  6.772369,  3.549488 )     1.99036939
  Sum of centres and spreads (620.287741,923.164274,323.311131 )   375.15396370
 
         Spreads (Ang^2)       Omega I      =   351.461164502
        ================       Omega D      =     0.000644078
                               Omega OD     =    23.692155007
    Final Spread (Ang^2)       Omega Total  =   375.153963587
 ------------------------------------------------------------------------------
 Final centres (translated to home cell for writing xyz file)
  WF centre    1  ( -0.000001,  7.958799,  3.897001 )
  WF centre    2  ( -0.000003,  7.948470,  3.957666 )
  WF centre    3  (  0.000001,  7.968361,  3.957615 )
  WF centre    4  (  0.000010,  7.918959,  3.917424 )
  WF centre    5  (  0.000011,  7.996792,  3.917433 )
  WF centre    6  (  0.000000, -0.005816,  1.695728 )
  WF centre    7  (  0.000002,  0.024359,  1.696184 )
  WF centre    8  (  0.000003, -0.024465,  1.696212 )
  WF centre    9  ( -0.000000,  0.146940,  1.695006 )
  WF centre   10  ( -0.000001, -0.139510,  1.695042 )
  WF centre   11  (  3.469759, -0.003554,  1.701497 )
  WF centre   12  (  3.470220,  0.026953,  1.698412 )
  WF centre   13  (  3.471925, -0.025638,  1.710335 )
  WF centre   14  (  3.467807,  0.143643,  1.700412 )
  WF centre   15  (  3.466053, -0.135032,  1.703370 )
  WF centre   16  (  6.892084,  0.040625,  1.686055 )
  WF centre   17  (  6.892086,  0.077143,  1.689106 )
  WF centre   18  (  6.892090, -0.122883,  1.812791 )
  WF centre   19  (  6.892083,  0.186009,  1.682709 )
  WF centre   20  (  6.892092, -0.088650,  1.682853 )
  WF centre   21  ( 10.314411, -0.003554,  1.701496 )
  WF centre   22  ( 10.313952,  0.026956,  1.698411 )
  WF centre   23  ( 10.312246, -0.025636,  1.710326 )
  WF centre   24  ( 10.316363,  0.143643,  1.700413 )
  WF centre   25  ( 10.318119, -0.135034,  1.703370 )
  WF centre   26  (  8.584996,  2.996462,  1.609156 )
  WF centre   27  (  8.581496,  3.024210,  1.618103 )
  WF centre   28  (  8.584660,  2.981389,  1.617909 )
  WF centre   29  (  8.592149,  3.146535,  1.613591 )
  WF centre   30  (  8.581414,  2.861731,  1.614013 )
  WF centre   31  (  6.892085,  5.928551,  1.608516 )
  WF centre   32  (  6.892086,  5.955678,  1.617986 )
  WF centre   33  (  6.892084,  5.907737,  1.618298 )
  WF centre   34  (  6.892086,  6.079093,  1.614456 )
  WF centre   35  (  6.892085,  5.799983,  1.613481 )
  WF centre   36  (  5.158562,  8.927043,  1.700279 )
  WF centre   37  (  5.157444,  8.955812,  1.709926 )
  WF centre   38  (  5.156732,  8.906143,  1.699308 )
  WF centre   39  (  5.162413,  9.077225,  1.703015 )
  WF centre   40  (  5.156672,  8.798046,  1.701423 )
  WF centre   41  (  1.730876,  8.954732,  1.873565 )
  WF centre   42  (  1.676709,  8.966953,  1.890342 )
  WF centre   43  (  1.719702,  8.909653,  1.885358 )
  WF centre   44  (  1.738872,  9.075692,  1.857864 )
  WF centre   45  (  1.666189,  8.811469,  1.884800 )
  WF centre   46  ( -1.730877,  8.954735,  1.873563 )
  WF centre   47  ( -1.676710,  8.966954,  1.890339 )
  WF centre   48  ( -1.719701,  8.909652,  1.885357 )
  WF centre   49  ( -1.738874,  9.075689,  1.857864 )
  WF centre   50  ( -1.666187,  8.811468,  1.884801 )
  WF centre   51  ( -5.158561,  8.927044,  1.700279 )
  WF centre   52  ( -5.157442,  8.955812,  1.709932 )
  WF centre   53  ( -5.156730,  8.906144,  1.699304 )
  WF centre   54  ( -5.162413,  9.077225,  1.703015 )
  WF centre   55  ( -5.156671,  8.798044,  1.701424 )
  WF centre   56  (  5.199176,  2.996463,  1.609156 )
  WF centre   57  (  5.202672,  3.024211,  1.618103 )
  WF centre   58  (  5.199510,  2.981386,  1.617915 )
  WF centre   59  (  5.192022,  3.146534,  1.613592 )
  WF centre   60  (  5.202755,  2.861730,  1.614013 )
  WF centre   61  (  3.484191,  5.941829,  1.685697 )
  WF centre   62  (  3.359085,  6.022824,  1.802380 )
  WF centre   63  (  3.493559,  5.936712,  1.705176 )
  WF centre   64  (  3.484162,  6.083103,  1.679090 )
  WF centre   65  (  3.487977,  5.814533,  1.680684 )
  WF centre   66  (  0.000002,  5.957750,  1.873723 )
  WF centre   67  (  0.000000,  5.990136,  1.878980 )
  WF centre   68  ( -0.000001,  5.995116,  1.882859 )
  WF centre   69  ( -0.000004,  6.151287,  1.901128 )
  WF centre   70  (  0.000001,  5.846394,  1.855490 )
  WF centre   71  (  1.735906,  2.999248,  1.701854 )
  WF centre   72  (  1.734997,  3.032204,  1.704652 )
  WF centre   73  (  1.737310,  2.979035,  1.703235 )
  WF centre   74  (  1.733329,  3.145191,  1.702823 )
  WF centre   75  (  1.735677,  2.865085,  1.701451 )
  WF centre   76  ( -1.735905,  2.999249,  1.701853 )
  WF centre   77  ( -1.734999,  3.032204,  1.704646 )
  WF centre   78  ( -1.737309,  2.979034,  1.703232 )
  WF centre   79  ( -1.733330,  3.145196,  1.702824 )
  WF centre   80  ( -1.735675,  2.865085,  1.701450 )
  WF centre   81  ( -3.484191,  5.941829,  1.685696 )
  WF centre   82  ( -3.359080,  6.022821,  1.802396 )
  WF centre   83  ( -3.493559,  5.936710,  1.705169 )
  WF centre   84  ( -3.484161,  6.083103,  1.679091 )
  WF centre   85  ( -3.487974,  5.814533,  1.680685 )
  WF centre   86  (  1.730677,  0.996765, -0.063136 )
  WF centre   87  (  1.725493,  0.978253,  0.062239 )
  WF centre   88  (  1.729306,  1.018195,  0.059787 )
  WF centre   89  (  1.725935,  0.994044,  3.454041 )
  WF centre   90  (  1.726514,  0.977204,  3.332306 )
  WF centre   91  (  1.726699,  1.018285,  3.332300 )
  WF centre   92  (  5.169514,  0.972223, -0.120580 )
  WF centre   93  (  5.171458,  0.951915,  0.012368 )
  WF centre   94  (  5.165595,  0.992800,  0.004441 )
  WF centre   95  (  5.169833,  1.052208,  3.435722 )
  WF centre   96  (  5.166402,  1.041581,  3.313711 )
  WF centre   97  (  5.159628,  1.077709,  3.315175 )
  WF centre   98  (  8.614656,  0.972221, -0.120583 )
  WF centre   99  (  8.612720,  0.951918,  0.012367 )
  WF centre  100  (  8.618579,  0.992799,  0.004441 )
  WF centre  101  (  8.614340,  1.052209,  3.435718 )
  WF centre  102  (  8.617764,  1.041579,  3.313713 )
  WF centre  103  (  8.624541,  1.077710,  3.315175 )
  WF centre  104  ( 12.053491,  0.996767, -0.063135 )
  WF centre  105  ( 12.058680,  0.978247,  0.062238 )
  WF centre  106  ( 12.054871,  1.018189,  0.059788 )
  WF centre  107  ( 12.058243,  0.994043,  3.454044 )
  WF centre  108  ( 12.057656,  0.977210,  3.332305 )
  WF centre  109  ( 12.057468,  1.018289,  3.332300 )
  WF centre  110  ( 10.354590,  3.987271, -0.120546 )
  WF centre  111  ( 10.362836,  3.973399,  0.009374 )
  WF centre  112  ( 10.355201,  4.008974,  0.007417 )
  WF centre  113  ( 10.285105,  3.946919,  3.435493 )
  WF centre  114  ( 10.291947,  3.921184,  3.312213 )
  WF centre  115  ( 10.280256,  3.965048,  3.316942 )
  WF centre  116  (  8.633137,  6.970412, -0.120640 )
  WF centre  117  (  8.629190,  6.957001,  0.003554 )
  WF centre  118  (  8.640655,  6.996640,  0.013370 )
  WF centre  119  (  8.563588,  6.929999,  3.435661 )
  WF centre  120  (  8.555772,  6.916035,  3.317549 )
  WF centre  121  (  8.557783,  6.959906,  3.311474 )
  WF centre  122  (  6.892086,  9.936815, -0.063164 )
  WF centre  123  (  6.892083,  9.920553,  0.058629 )
  WF centre  124  (  6.892082,  9.966668,  0.063427 )
  WF centre  125  (  6.892088,  9.942004,  3.454091 )
  WF centre  126  (  6.892089,  9.923978,  3.332262 )
  WF centre  127  (  6.892088,  9.965334,  3.332328 )
  WF centre  128  (  3.389594,  9.912803,  0.000909 )
  WF centre  129  (  3.402767,  9.898150,  0.118160 )
  WF centre  130  (  3.399141,  9.947509,  0.120048 )
  WF centre  131  (  3.486188,  9.968147,  3.525742 )
  WF centre  132  (  3.477820,  9.950315,  3.395201 )
  WF centre  133  (  3.492252,  9.992798,  3.397053 )
  WF centre  134  ( -0.000001,  9.903795,  0.074090 )
  WF centre  135  (  0.000003,  9.889480,  0.175396 )
  WF centre  136  ( -0.000001,  9.934021,  0.190303 )
  WF centre  137  ( -0.000004, 10.303511,  3.635125 )
  WF centre  138  (  0.000033, 10.218366,  3.531080 )
  WF centre  139  ( -0.000014,  9.698979,  3.852575 )
  WF centre  140  ( -3.389596,  9.912802,  0.000911 )
  WF centre  141  ( -3.402770,  9.898146,  0.118159 )
  WF centre  142  ( -3.399139,  9.947512,  0.120048 )
  WF centre  143  ( -3.486187,  9.968146,  3.525744 )
  WF centre  144  ( -3.477832,  9.950310,  3.395202 )
  WF centre  145  ( -3.492252,  9.992799,  3.397055 )
  WF centre  146  (  6.892085,  3.976643, -0.185970 )
  WF centre  147  (  6.892085,  3.963771, -0.063105 )
  WF centre  148  (  6.892085,  3.996376, -0.063123 )
  WF centre  149  (  6.892086,  3.976960,  3.419151 )
  WF centre  150  (  6.892084,  3.967880,  3.298069 )
  WF centre  151  (  6.892086,  3.991968,  3.298081 )
  WF centre  152  (  5.151034,  6.970413, -0.120638 )
  WF centre  153  (  5.154984,  6.956999,  0.003552 )
  WF centre  154  (  5.143522,  6.996641,  0.013370 )
  WF centre  155  (  5.220581,  6.929994,  3.435662 )
  WF centre  156  (  5.228402,  6.916031,  3.317548 )
  WF centre  157  (  5.226381,  6.959910,  3.311472 )
  WF centre  158  (  1.686614,  6.982091,  0.073881 )
  WF centre  159  (  1.691800,  6.961398,  0.186665 )
  WF centre  160  (  1.690635,  7.003997,  0.179089 )
  WF centre  161  (  1.510107,  7.088037,  3.852192 )
  WF centre  162  (  2.043188,  6.841109,  3.617134 )
  WF centre  163  (  1.942672,  6.772392,  3.549496 )
  WF centre  164  (  3.429581,  3.987269, -0.120541 )
  WF centre  165  (  3.421342,  3.973399,  0.009373 )
  WF centre  166  (  3.428971,  4.008976,  0.007416 )
  WF centre  167  (  3.499069,  3.946924,  3.435497 )
  WF centre  168  (  3.492218,  3.921183,  3.312212 )
  WF centre  169  (  3.503916,  3.965048,  3.316939 )
  WF centre  170  ( -0.000002,  4.041566,  0.000876 )
  WF centre  171  (  0.000003,  4.010495,  0.121041 )
  WF centre  172  ( -0.000004,  4.053903,  0.117183 )
  WF centre  173  (  0.000000,  3.930539,  3.525356 )
  WF centre  174  ( -0.000003,  3.902424,  3.398058 )
  WF centre  175  ( -0.000006,  3.967526,  3.394592 )
  WF centre  176  ( -1.686615,  6.982091,  0.073891 )
  WF centre  177  ( -1.691799,  6.961399,  0.186665 )
  WF centre  178  ( -1.690633,  7.003995,  0.179091 )
  WF centre  179  ( -1.510118,  7.088049,  3.852174 )
  WF centre  180  ( -2.043178,  6.841101,  3.617137 )
  WF centre  181  ( -1.942675,  6.772369,  3.549488 )
 ------------------------------------------------------------------------------
 

 Wannier centres written to file 1Fe_centreconf.up_centres.xyz
  
  Omega Invariant:   1-s^2 =   351.461164502 (Ang^2)
                   -2log s =   359.201647353 (Ang^2)
                    acos^2 =   356.570286606 (Ang^2)
 Time for wannierise           46.174 (sec)

 Writing checkpoint file 1Fe_centreconf.up.chk... done

 *---------------------------------------------------------------------------*
 |                               PLOTTING                                    |
 *---------------------------------------------------------------------------*
 
   19 lattice points in Wigner-Seitz supercell:

      vector  -2  -2   0   degeneracy:  2
      vector  -2  -1   0   degeneracy:  1
      vector  -2   0   0   degeneracy:  2
      vector  -1  -2   0   degeneracy:  1
      vector  -1  -1   0   degeneracy:  1
      vector  -1   0   0   degeneracy:  1
      vector  -1   1   0   degeneracy:  1
      vector   0  -2   0   degeneracy:  2
      vector   0  -1   0   degeneracy:  1
      vector   0   0   0   degeneracy:  1
      vector   0   1   0   degeneracy:  1
      vector   0   2   0   degeneracy:  2
      vector   1  -1   0   degeneracy:  1
      vector   1   0   0   degeneracy:  1
      vector   1   1   0   degeneracy:  1
      vector   1   2   0   degeneracy:  1
      vector   2   0   0   degeneracy:  2
      vector   2   1   0   degeneracy:  1
      vector   2   2   0   degeneracy:  2
  tot =       16.000
  mp_grid product =           16
 
 Calculating interpolated band-structure
 
 Time to calculate interpolated band structure      23.255 (sec)
 
 Time for plotting             26.629 (sec)
 Total Execution Time         562.283 (sec)

 *===========================================================================*
 |                             TIMING INFORMATION                            |
 *===========================================================================*
 |    Tag                                                Ncalls      Time (s)|
 |---------------------------------------------------------------------------|
 |kmesh: get                                        :         1         0.022|
 |overlap: allocate                                 :         1         0.008|
 |overlap: read                                     :         1        62.668|
 |dis: main                                         :         1       426.682|
 |wann: main                                        :         1        46.174|
 |plot: main                                        :         1        26.629|
 *---------------------------------------------------------------------------*
 
 All done: wannier90 exiting
